 Gaussian 16, Revision C.01,
 Gaussian 16:  ES64L-G16RevC.01  3-Jul-2019

 ----------------------------------------------
 # wb97xd 6-31++g** opt freq Temperature=298.15
 ----------------------------------------------

 -------
 1am.xyz
 -------
 Symbolic Z-matrix:
 Charge =  0 Multiplicity = 1

 SCF Done:  E(RwB97XD) =  -56.5464988629     A.U. after   10 cycles
 Optimization completed.
    -- Stationary point found.
 Normal termination of Gaussian 16 at Wed May  4 01:12:57 2022.

 ----------------------------------------------------------------------
 #N Geom=AllCheck Guess=TCheck SCRF=Check GenChk RwB97XD/6-31++G(d,p) F
 req
 ----------------------------------------------------------------------

 Structure from the checkpoint file:  "/scratch/hvehkama/kubeckaj/OTHERS/ACDB/monomers/DFT_freq/calc-LM/TMP/G1611631856_1am/Gau-232001.chk"
 -------
 1am.xyz
 -------
 Charge =  0 Multiplicity = 1

                         Standard orientation:
 ---------------------------------------------------------------------
 Center     Atomic      Atomic             Coordinates (Angstroms)
 Number     Number       Type             X           Y           Z
 ---------------------------------------------------------------------
      1          1           0       -0.000000    0.948529   -0.249721
      2          1           0        0.821450   -0.474265   -0.249721
      3          1           0       -0.821450   -0.474265   -0.249721
      4          7           0        0.000000    0.000000    0.107023
 ---------------------------------------------------------------------

 SCF Done:  E(RwB97XD) =  -56.5464986382     A.U. after    2 cycles

 The electronic state is 1-A1.
 Alpha  occ. eigenvalues --  -14.43710  -0.95339  -0.55276  -0.55276  -0.34953
 Alpha virt. eigenvalues --    0.04147   0.07725   0.07725   0.18261   0.21713
 Alpha virt. eigenvalues --    0.23928   0.23928   0.29161   0.29161   0.36731
 Alpha virt. eigenvalues --    0.97057   0.99926   0.99926   1.01587   1.01587

 Mulliken charges:
               1
     1  H    0.290672
     2  H    0.290672
     3  H    0.290672
     4  N   -0.872016
 Sum of Mulliken charges =   0.00000

 Dipole moment (field-independent basis, Debye):
    X=             -0.0000    Y=             -0.0000    Z=             -1.7863  Tot=              1.7863
 Quadrupole moment (field-independent basis, Debye-Ang):
   XX=             -6.1868   YY=             -6.1868   ZZ=             -9.7061
   XY=             -0.0000   XZ=              0.0000   YZ=              0.0000

  Exact polarizability:      10.466      -0.000      10.466       0.000       0.001      11.706
 Approx polarizability:       9.932      -0.000       9.932       0.000       0.000       9.353

                      1                      2                      3
                     A1                      E                      E
 Frequencies --    999.1364              1680.4324              1680.4324
 Red. masses --      1.1838                 1.0685                 1.0685
 Frc consts  --      0.6963                 1.7777                 1.7777
 IR Inten    --    254.5375                31.5919                31.5375

                      4                      5                      6
                     A1                      E                      E
 Frequencies --   3532.9323              3685.9259              3685.9313
 Red. masses --      1.0243                 1.0918                 1.0918
 Frc consts  --      7.5330                 8.7394                 8.7394
 IR Inten    --      1.2845                 4.5978                 4.5967

 - Thermochemistry -
 -------------------
 Temperature   298.150 Kelvin.  Pressure   1.00000 Atm.
 Atom     1 has atomic number  1 and mass   1.00783

 Molecular mass:    17.02655 amu.
 Principal axes and moments of inertia in atomic units:
                           1         2         3
     Eigenvalues --     5.98718   5.98718   9.71416
           X           -0.41591   0.90941   0.00000
           Y            0.90941   0.41591   0.00000
           Z           -0.00000  -0.00000   1.00000
 This molecule is an oblate symmetric top.
 Rotational symmetry number  3.
 Rotational temperatures (Kelvin)     14.46658    14.46658     8.91625
 Rotational constants (GHZ):         301.43450   301.43450   185.78450
 Zero-point vibrational energy      91303.7 (Joules/Mol)
                                   21.82211 (Kcal/Mol)
 Vibrational temperatures:   1437.53  2417.77  2417.77  5083.10  5303.23
          (Kelvin)           5303.23

 Zero-point correction=                           0.034776 (Hartree/Particle)
 Thermal correction to Energy=                    0.037650
 Thermal correction to Enthalpy=                  0.038594
 Thermal correction to Gibbs Free Energy=         0.016747
 Sum of electronic and zero-point Energies=            -56.511723
 Sum of electronic and thermal Energies=               -56.508849
 Sum of electronic and thermal Enthalpies=             -56.507905
 Sum of electronic and thermal Free Energies=          -56.529751

                     E (Thermal)             CV                S
                      KCal/Mol        Cal/Mol-Kelvin    Cal/Mol-Kelvin
 Total                   23.626              6.418             45.981
 Electronic               0.000              0.000              0.000
 Translational            0.889              2.981             34.441
 Rotational               0.889              2.981             11.435
 Vibrational             21.848              0.457              0.105

 Optimization completed.
    -- Stationary point found.
 Normal termination of Gaussian 16 at Wed May  4 01:13:00 2022.
