 Gaussian 16, Revision C.01,
 Gaussian 16:  ES64L-G16RevC.01  3-Jul-2019

 ----------------------------------------------
 # wb97xd 6-31++g** opt freq Temperature=298.15
 ----------------------------------------------

 --------
 1dma.xyz
 --------
 Symbolic Z-matrix:
 Charge =  0 Multiplicity = 1

 SCF Done:  E(RwB97XD) =  -135.134508382     A.U. after   12 cycles
 Optimization completed.
    -- Stationary point found.
 Normal termination of Gaussian 16 at Wed May  4 01:12:58 2022.

 ----------------------------------------------------------------------
 #N Geom=AllCheck Guess=TCheck SCRF=Check GenChk RwB97XD/6-31++G(d,p) F
 req
 ----------------------------------------------------------------------

 Structure from the checkpoint file:  "/scratch/hvehkama/kubeckaj/OTHERS/ACDB/monomers/DFT_freq/calc-LM/TMP/G1611637748_1dma/Gau-59037.chk"
 --------
 1dma.xyz
 --------
 Charge =  0 Multiplicity = 1

                         Standard orientation:
 ---------------------------------------------------------------------
 Center     Atomic      Atomic             Coordinates (Angstroms)
 Number     Number       Type             X           Y           Z
 ---------------------------------------------------------------------
      1          1           0       -0.770327    1.206659    0.000000
      2          1           0        0.964253   -0.784821    1.271130
      3          1           0       -0.025367    0.430439    2.086660
      4          1           0       -0.804267   -0.948741    1.264400
      5          1           0        0.964253   -0.784821   -1.271130
      6          1           0       -0.804267   -0.948741   -1.264400
      7          1           0       -0.025367    0.430439   -2.086660
      8          6           0        0.026373   -0.221911    1.210840
      9          6           0        0.026373   -0.221911   -1.210840
     10          7           0        0.026373    0.580359    0.000000
 ---------------------------------------------------------------------

 SCF Done:  E(RwB97XD) =  -135.134508382     A.U. after    1 cycles

 The electronic state is 1-A'.
 Alpha  occ. eigenvalues --  -14.44006 -10.31242 -10.31241  -1.00106  -0.79833
 Alpha  occ. eigenvalues --   -0.72252  -0.57772  -0.53014  -0.52101  -0.47011
 Alpha  occ. eigenvalues --   -0.44794  -0.44479  -0.30269
 Alpha virt. eigenvalues --    0.04220   0.06010   0.06453   0.07644   0.09363
 Alpha virt. eigenvalues --    0.09391   0.10629   0.12920   0.15734   0.16032
 Alpha virt. eigenvalues --    0.17124   0.19247   0.19254   0.20284   0.22427

 Mulliken charges:
               1
     1  H    0.296006
     2  H    0.153170
     3  H    0.152279
     4  H    0.126554
     5  H    0.153170
     6  H    0.126554
     7  H    0.152279
     8  C   -0.397383
     9  C   -0.397383
    10  N   -0.365245
 Sum of Mulliken charges =  -0.00000

 Dipole moment (field-independent basis, Debye):
    X=             -1.0230    Y=             -0.4562    Z=             -0.0000  Tot=              1.1201
 Quadrupole moment (field-independent basis, Debye-Ang):
   XX=            -21.0428   YY=            -21.6216   ZZ=            -19.6255
   XY=             -2.3699   XZ=              0.0000   YZ=              0.0000

  Exact polarizability:      32.370       0.883      34.560       0.000      -0.000      37.703
 Approx polarizability:      33.054       0.170      34.655      -0.000       0.000      33.904

                      1                      2                      3
                     A"                     A'                     A'
 Frequencies --    233.1350               274.5516               394.8653
 Red. masses --      1.0329                 1.2046                 2.1790
 Frc consts  --      0.0331                 0.0535                 0.2002
 IR Inten    --      0.1795                 3.0722                 6.7728

                      4                      5                      6
                     A'                     A'                     A"
 Frequencies --    779.5228               966.3360              1047.7192
 Red. masses --      1.2272                 2.4215                 1.1724
 Frc consts  --      0.4393                 1.3323                 0.7582
 IR Inten    --    131.3971                 7.7347                 8.8104

                      7                      8                      9
                     A"                     A'                     A"
 Frequencies --   1113.4763              1195.6627              1211.9570
 Red. masses --      1.2653                 1.4693                 3.7374
 Frc consts  --      0.9243                 1.2376                 3.2344
 IR Inten    --      0.3347                 8.1790                30.7163

                     10                     11                     12
                     A'                     A"                     A'
 Frequencies --   1277.0359              1453.4456              1483.1631
 Red. masses --      1.7344                 1.1695                 1.1824
 Frc consts  --      1.6665                 1.4556                 1.5325
 IR Inten    --      0.1335                 0.0245                 2.2098

                     13                     14                     15
                     A"                     A"                     A'
 Frequencies --   1487.5754              1500.1571              1509.5212
 Red. masses --      1.1354                 1.0800                 1.0631
 Frc consts  --      1.4803                 1.4320                 1.4272
 IR Inten    --      8.7603                 2.0273                13.4433

                     16                     17                     18
                     A'                     A"                     A"
 Frequencies --   1526.9691              1528.4745              2962.8819
 Red. masses --      1.0393                 1.0929                 1.0563
 Frc consts  --      1.4277                 1.5044                 5.4636
 IR Inten    --      3.5001                18.6899                56.6885

                     19                     20                     21
                     A'                     A'                     A"
 Frequencies --   2965.2195              3083.3461              3085.7960
 Red. masses --      1.0578                 1.0765                 1.0791
 Frc consts  --      5.4798                 6.0302                 6.0542
 IR Inten    --    166.4340                56.8738                22.7649

                     22                     23                     24
                     A"                     A'                     A'
 Frequencies --   3140.2007              3140.7915              3601.6933
 Red. masses --      1.1020                 1.1013                 1.0750
 Frc consts  --      6.4027                 6.4007                 8.2161
 IR Inten    --     26.6605                37.1453                 0.4850

 - Thermochemistry -
 -------------------
 Temperature   298.150 Kelvin.  Pressure   1.00000 Atm.
 Atom     1 has atomic number  1 and mass   1.00783

 Molecular mass:    45.05785 amu.
 Principal axes and moments of inertia in atomic units:
                           1         2         3
     Eigenvalues --    51.96028 193.30038 218.92971
           X            0.00000  -0.12465   0.99220
           Y            0.00000   0.99220   0.12465
           Z            1.00000   0.00000   0.00000
 This molecule is an asymmetric top.
 Rotational symmetry number  1.
 Rotational temperatures (Kelvin)      1.66693     0.44808     0.39562
 Rotational constants (GHZ):          34.73309     9.33646     8.24347
 Zero-point vibrational energy     245016.1 (Joules/Mol)
                                   58.56026 (Kcal/Mol)
 Warning -- explicit consideration of   3 degrees of freedom as
           vibrations may cause significant error
 Vibrational temperatures:    335.43   395.02   568.12  1121.56  1390.34
          (Kelvin)           1507.43  1602.04  1720.29  1743.74  1837.37
                             2091.18  2133.94  2140.29  2158.39  2171.86
                             2196.97  2199.13  4262.93  4266.29  4436.25
                             4439.77  4518.05  4518.90  5182.03

 Zero-point correction=                           0.093322 (Hartree/Particle)
 Thermal correction to Energy=                    0.097693
 Thermal correction to Enthalpy=                  0.098637
 Thermal correction to Gibbs Free Energy=         0.067886
 Sum of electronic and zero-point Energies=           -135.041187
 Sum of electronic and thermal Energies=              -135.036815
 Sum of electronic and thermal Enthalpies=            -135.035871
 Sum of electronic and thermal Free Energies=         -135.066622

                     E (Thermal)             CV                S
                      KCal/Mol        Cal/Mol-Kelvin    Cal/Mol-Kelvin
 Total                   61.303             13.745             64.721
 Electronic               0.000              0.000              0.000
 Translational            0.889              2.981             37.342
 Rotational               0.889              2.981             22.313
 Vibrational             59.526              7.783              5.067
 Vibration     1          0.654              1.790              1.855
 Vibration     2          0.677              1.720              1.567
 Vibration     3          0.762              1.481              0.982

                           ! Non-Optimized Parameters !
 Normal termination of Gaussian 16 at Wed May  4 01:13:13 2022.
