 Gaussian 16, Revision C.01,
 Gaussian 16:  ES64L-G16RevC.01  3-Jul-2019

 ----------------------------------------------
 # wb97xd 6-31++g** opt freq Temperature=298.15
 ----------------------------------------------

 -------
 1sa.xyz
 -------
 Symbolic Z-matrix:
 Charge =  0 Multiplicity = 1

 SCF Done:  E(RwB97XD) =  -700.126011685     A.U. after   12 cycles
 SCF Done:  E(RwB97XD) =  -700.126012016     A.U. after    8 cycles
 Optimization completed.
    -- Stationary point found.
 Normal termination of Gaussian 16 at Wed May  4 01:02:11 2022.

 ----------------------------------------------------------------------
 #N Geom=AllCheck Guess=TCheck SCRF=Check GenChk RwB97XD/6-31++G(d,p) F
 req
 ----------------------------------------------------------------------

 Structure from the checkpoint file:  "/scratch/hvehkama/kubeckaj/OTHERS/ACDB/monomers/DFT_freq/calc-LM/TMP/G1611637722_1sa/Gau-53634.chk"
 -------
 1sa.xyz
 -------
 Charge =  0 Multiplicity = 1

                         Standard orientation:
 ---------------------------------------------------------------------
 Center     Atomic      Atomic             Coordinates (Angstroms)
 Number     Number       Type             X           Y           Z
 ---------------------------------------------------------------------
      1          1           0       -0.908397   -1.422380   -1.139107
      2          1           0        0.908397    1.422380   -1.139107
      3          8           0       -1.269705    0.048094    0.832439
      4          8           0        1.269705   -0.048094    0.832439
      5          8           0        0.000000   -1.246244   -0.852505
      6          8           0        0.000000    1.246244   -0.852505
      7         16           0        0.000000    0.000000    0.162454
 ---------------------------------------------------------------------

 SCF Done:  E(RwB97XD) =  -700.126012016     A.U. after    1 cycles

 The electronic state is 1-A.
 Alpha  occ. eigenvalues --  -89.36665 -19.37235 -19.37234 -19.31746 -19.31746
 Alpha  occ. eigenvalues --   -8.34195  -6.29291  -6.29208  -6.29049  -1.32390
 Alpha  occ. eigenvalues --   -1.20150  -1.17992  -1.16581  -0.81101  -0.73627
 Alpha  occ. eigenvalues --   -0.64245  -0.62386  -0.59256  -0.54961  -0.52277
 Alpha  occ. eigenvalues --   -0.49001  -0.48268  -0.44415  -0.44403  -0.43004
 Alpha virt. eigenvalues --    0.02344   0.04909   0.09380   0.10244   0.11615
 Alpha virt. eigenvalues --    0.12832   0.12933   0.13309   0.17014   0.17744
 Alpha virt. eigenvalues --    0.19745   0.23751   0.24073   0.24453   0.25344

 Mulliken charges:
               1
     1  H    0.408691
     2  H    0.408691
     3  O   -0.581193
     4  O   -0.581193
     5  O   -0.615085
     6  O   -0.615085
     7  S    1.575173
 Sum of Mulliken charges =  -0.00000

 Dipole moment (field-independent basis, Debye):
    X=             -0.0000    Y=              0.0000    Z=             -3.2734  Tot=              3.2734
 Quadrupole moment (field-independent basis, Debye-Ang):
   XX=            -36.8616   YY=            -33.0345   ZZ=            -34.9346
   XY=              5.8805   XZ=              0.0000   YZ=              0.0000

  Exact polarizability:      35.959       1.025      31.446      -0.000       0.000      31.944
 Approx polarizability:      43.588       0.146      32.781       0.000      -0.000      34.650

                      1                      2                      3
                      A                      B                      A
 Frequencies --    252.6118               317.7695               364.3082
 Red. masses --      1.3544                 1.1200                12.0392
 Frc consts  --      0.0509                 0.0666                 0.9414
 IR Inten    --    102.4996                72.1426                 4.5392

                      4                      5                      6
                      A                      B                      A
 Frequencies --    426.4724               481.3174               530.3642
 Red. masses --      2.8535                 4.8384                13.9001
 Frc consts  --      0.3058                 0.6604                 2.3037
 IR Inten    --     24.2603                49.1809                54.7725

                      7                      8                      9
                      B                      A                      B
 Frequencies --    535.9386               816.3928               871.2037
 Red. masses --     14.7561                14.9849                18.0716
 Frc consts  --      2.4972                 5.8844                 8.0814
 IR Inten    --     33.0317               121.9142               363.0544

                     10                     11                     12
                      A                      B                      A
 Frequencies --   1155.2827              1169.2300              1218.0294
 Red. masses --      1.1230                 1.2848                16.5492
 Frc consts  --      0.8831                 1.0349                14.4658
 IR Inten    --     82.7622                99.8200               190.2667

                     13                     14                     15
                      B                      B                      A
 Frequencies --   1465.2338              3843.0126              3847.0862
 Red. masses --      9.3953                 1.0659                 1.0662
 Frc consts  --     11.8843                 9.2753                 9.2975
 IR Inten    --    330.2001               223.2358                61.8754

 - Thermochemistry -
 -------------------
 Temperature   298.150 Kelvin.  Pressure   1.00000 Atm.
 Atom     1 has atomic number  1 and mass   1.00783

 Molecular mass:    97.96738 amu.
 Principal axes and moments of inertia in atomic units:
                           1         2         3
     Eigenvalues --   362.97365 368.09339 382.36057
           X            0.53905   0.84228   0.00000
           Y            0.84228  -0.53905   0.00000
           Z            0.00000   0.00000   1.00000
 This molecule is an asymmetric top.
 Rotational symmetry number  2.
 Rotational temperatures (Kelvin)      0.23862     0.23530     0.22652
 Rotational constants (GHZ):           4.97210     4.90294     4.72000
 Zero-point vibrational energy     103442.6 (Joules/Mol)
                                   24.72338 (Kcal/Mol)
 Warning -- explicit consideration of   7 degrees of freedom as
           vibrations may cause significant error
 Vibrational temperatures:    363.45   457.20   524.16   613.60   692.51
          (Kelvin)            763.08   771.10  1174.61  1253.47  1662.19
                             1682.26  1752.47  2108.14  5529.24  5535.10

 Zero-point correction=                           0.039399 (Hartree/Particle)
 Thermal correction to Energy=                    0.044577
 Thermal correction to Enthalpy=                  0.045521
 Thermal correction to Gibbs Free Energy=         0.011743
 Sum of electronic and zero-point Energies=           -700.086613
 Sum of electronic and thermal Energies=              -700.081435
 Sum of electronic and thermal Enthalpies=            -700.080491
 Sum of electronic and thermal Free Energies=         -700.114269

                     E (Thermal)             CV                S
                      KCal/Mol        Cal/Mol-Kelvin    Cal/Mol-Kelvin
 Total                   27.973             17.867             71.092
 Electronic               0.000              0.000              0.000
 Translational            0.889              2.981             39.657
 Rotational               0.889              2.981             24.061
 Vibrational             26.195             11.906              7.374
 Vibration     1          0.664              1.758              1.712
 Vibration     2          0.704              1.640              1.322
 Vibration     3          0.738              1.546              1.104
 Vibration     4          0.788              1.413              0.870
 Vibration     5          0.838              1.291              0.707
 Vibration     6          0.885              1.183              0.586
 Vibration     7          0.891              1.171              0.574

                           ! Non-Optimized Parameters !
 Normal termination of Gaussian 16 at Wed May  4 01:02:25 2022.
