 Gaussian 16, Revision C.01,
 Gaussian 16:  ES64L-G16RevC.01  3-Jul-2019

 -----------------------
 # wb97xd 6-31++g** freq
 -----------------------

 /scratch/hvehkama/kubeckaj/OTHERS/Myllys19_synergy/Structures_synergy/
 calcs/DFT_opt/calc-LM/1sa1dma.xyz
 ----------------------------------------------------------------------
 Symbolic Z-matrix:
 Charge =  0 Multiplicity = 1

                         Standard orientation:
 ---------------------------------------------------------------------
 Center     Atomic      Atomic             Coordinates (Angstroms)
 Number     Number       Type             X           Y           Z
 ---------------------------------------------------------------------
      1          1           0        1.225412   -0.079746    0.806300
      2         16           0       -1.290391   -0.146593    0.011183
      3          8           0       -1.877749    1.382602    0.032089
      4          8           0       -0.435841   -0.213097   -1.209908
      5          8           0       -2.448576   -1.022491   -0.009313
      6          8           0       -0.450754   -0.175174    1.233451
      7          1           0       -2.730428    1.366344   -0.421801
      8          7           0        1.900527   -0.014960    0.007405
      9          1           0        1.185951   -0.092904   -0.763465
     10          6           0        2.823320   -1.164256   -0.004481
     11          1           0        3.469223   -1.123884    0.874113
     12          1           0        3.429797   -1.134402   -0.911061
     13          1           0        2.233197   -2.080589    0.013233
     14          6           0        2.538216    1.314837   -0.017002
     15          1           0        3.176484    1.430402    0.860448
     16          1           0        1.752896    2.071062   -0.004794
     17          1           0        3.134174    1.415717   -0.925392
 ---------------------------------------------------------------------

 SCF Done:  E(RwB97XD) =  -835.302994957     A.U. after   13 cycles

 The electronic state is 1-A.
 Alpha  occ. eigenvalues --  -89.29622 -19.30443 -19.25546 -19.25419 -19.24607
 Alpha  occ. eigenvalues --  -14.57280 -10.38424 -10.38313  -8.27037  -6.22168
 Alpha  occ. eigenvalues --   -6.21989  -6.21955  -1.24673  -1.12800  -1.11605
 Alpha  occ. eigenvalues --   -1.08662  -1.07982  -0.88020  -0.82209  -0.71761
 Alpha  occ. eigenvalues --   -0.68516  -0.65664  -0.61069  -0.60709  -0.57019
 Alpha  occ. eigenvalues --   -0.55652  -0.54786  -0.53755  -0.52209  -0.51284
 Alpha  occ. eigenvalues --   -0.50030  -0.44632  -0.42506  -0.41824  -0.41536
 Alpha  occ. eigenvalues --   -0.37443  -0.36108  -0.34445
 Alpha virt. eigenvalues --    0.01958   0.04208   0.04699   0.05908   0.07055
 Alpha virt. eigenvalues --    0.07661   0.08283   0.09203   0.10429   0.11011
 Alpha virt. eigenvalues --    0.13381   0.13789   0.14545   0.15416   0.15752

 Mulliken charges:
               1
     1  H    0.450242
     2  S    1.698637
     3  O   -0.663969
     4  O   -0.770465
     5  O   -0.630311
     6  O   -0.791994
     7  H    0.400885
     8  N   -0.647888
     9  H    0.456575
    10  C   -0.315164
    11  H    0.178296
    12  H    0.178928
    13  H    0.202372
    14  C   -0.301847
    15  H    0.178505
    16  H    0.198012
    17  H    0.179182
 Sum of Mulliken charges =  -0.00000

 Dipole moment (field-independent basis, Debye):
    X=              8.7435    Y=              1.9084    Z=             -0.7231  Tot=              8.9785
 Quadrupole moment (field-independent basis, Debye-Ang):
   XX=            -40.7894   YY=            -54.7852   ZZ=            -61.0407
   XY=             -6.6894   XZ=              2.5197   YZ=             -1.4877

  Exact polarizability:      80.987       0.596      64.651       0.669      -0.118      59.378
 Approx polarizability:      77.646       2.371      67.621       0.986       0.226      69.084

                      1                      2                      3
                      A                      A                      A
 Frequencies --     13.6718                56.0192                63.5566
 Red. masses --      4.1125                 2.8688                 2.9753
 Frc consts  --      0.0005                 0.0053                 0.0071
 IR Inten    --      0.9220                 1.7188                 4.4111

                      4                      5                      6
                      A                      A                      A
 Frequencies --     66.5324               146.5448               198.8796
 Red. masses --      3.8758                 1.2359                 1.0366
 Frc consts  --      0.0101                 0.0156                 0.0242
 IR Inten    --      6.7609                78.9899                 0.0776

                      7                      8                      9
                      A                      A                      A
 Frequencies --    206.2405               217.8728               326.3976
 Red. masses --      2.9446                 1.6244                 2.2555
 Frc consts  --      0.0738                 0.0454                 0.1416
 IR Inten    --     71.8783                14.4539                 2.8153

                     10                     11                     12
                      A                      A                      A
 Frequencies --    372.6181               402.7602               439.3416
 Red. masses --     10.5725                 2.9965                 3.8488
 Frc consts  --      0.8649                 0.2864                 0.4377
 IR Inten    --      1.8252                16.7865                12.6340

                     13                     14                     15
                      A                      A                      A
 Frequencies --    550.8367               563.6722               578.1381
 Red. masses --     14.9385                12.7737                12.5567
 Frc consts  --      2.6706                 2.3912                 2.4728
 IR Inten    --     23.1700                47.9332               120.4292

                     16                     17                     18
                      A                      A                      A
 Frequencies --    793.7170               825.4189               946.9520
 Red. masses --     16.3454                 1.1240                 2.8461
 Frc consts  --      6.0670                 0.4512                 1.5037
 IR Inten    --    227.9444                38.6743                 0.2891

                     19                     20                     21
                      A                      A                      A
 Frequencies --   1038.5945              1070.9410              1072.6100
 Red. masses --     15.5143                 1.3021                 1.2186
 Frc consts  --      9.8599                 0.8799                 0.8261
 IR Inten    --    245.9240                11.9998                 4.8354

                     22                     23                     24
                      A                      A                      A
 Frequencies --   1137.6212              1161.3730              1170.8247
 Red. masses --      1.7608                 2.8001                 2.2826
 Frc consts  --      1.3426                 2.2252                 1.8436
 IR Inten    --    123.0392                 9.1263               177.7130

                     25                     26                     27
                      A                      A                      A
 Frequencies --   1262.7915              1268.6079              1334.3524
 Red. masses --      1.8302                 1.6612                 7.0008
 Frc consts  --      1.7196                 1.5752                 7.3441
 IR Inten    --     72.0054                43.3933               530.2053

                     28                     29                     30
                      A                      A                      A
 Frequencies --   1460.7003              1475.0759              1487.4133
 Red. masses --      1.1589                 1.1114                 1.2071
 Frc consts  --      1.4568                 1.4247                 1.5735
 IR Inten    --      3.8245                 0.1289                 1.5403

                     31                     32                     33
                      A                      A                      A
 Frequencies --   1501.4682              1520.9110              1521.6962
 Red. masses --      1.0512                 1.0358                 1.0371
 Frc consts  --      1.3962                 1.4116                 1.4150
 IR Inten    --      5.4982                 4.3766                25.8763

                     34                     35                     36
                      A                      A                      A
 Frequencies --   1525.6247              1603.6537              1678.1906
 Red. masses --      1.0093                 1.2276                 1.0962
 Frc consts  --      1.3841                 1.8600                 1.8189
 IR Inten    --      0.8637                35.0990               568.3701

                     37                     38                     39
                      A                      A                      A
 Frequencies --   2989.4841              3084.2866              3090.1773
 Red. masses --      1.1007                 1.0396                 1.0321
 Frc consts  --      5.7955                 5.8270                 5.8071
 IR Inten    --    443.1193               260.4047                 9.3074

                     40                     41                     42
                      A                      A                      A
 Frequencies --   3130.8842              3187.0547              3188.4105
 Red. masses --      1.0595                 1.1069                 1.1074
 Frc consts  --      6.1193                 6.6240                 6.6328
 IR Inten    --    833.1211                 6.3346                 4.0057

                     43                     44                     45
                      A                      A                      A
 Frequencies --   3200.6522              3201.1706              3878.7125
 Red. masses --      1.1067                 1.1067                 1.0659
 Frc consts  --      6.6798                 6.6819                 9.4483
 IR Inten    --      0.5222                 0.7337               110.0304

 - Thermochemistry -
 -------------------
 Temperature   298.150 Kelvin.  Pressure   1.00000 Atm.
 Atom     1 has atomic number  1 and mass   1.00783

 Molecular mass:   143.02523 amu.
 Principal axes and moments of inertia in atomic units:
                           1         2         3
     Eigenvalues --   556.400761958.643612140.78279
           X            0.99996  -0.00894   0.00220
           Y            0.00897   0.99988  -0.01261
           Z           -0.00209   0.01263   0.99992
 This molecule is an asymmetric top.
 Rotational symmetry number  1.
 Warning -- assumption of classical behavior for rotation
           may cause significant error
 Rotational temperatures (Kelvin)      0.15567     0.04422     0.04046
 Rotational constants (GHZ):           3.24360     0.92142     0.84303
 Zero-point vibrational energy     358954.2 (Joules/Mol)
                                   85.79211 (Kcal/Mol)
 Warning -- explicit consideration of  15 degrees of freedom as
           vibrations may cause significant error
 Vibrational temperatures:     19.67    80.60    91.44    95.73   210.85
          (Kelvin)            286.14   296.73   313.47   469.61   536.11
                              579.48   632.11   792.53   811.00   831.81
                             1141.98  1187.59  1362.45  1494.31  1540.85
                             1543.25  1636.78  1670.96  1684.56  1816.88
                             1825.24  1919.84  2101.62  2122.31  2140.06
                             2160.28  2188.25  2189.38  2195.03  2307.30
                             2414.54  4301.20  4437.60  4446.08  4504.64
                             4585.46  4587.41  4605.02  4605.77  5580.60

 Zero-point correction=                           0.136718 (Hartree/Particle)
 Thermal correction to Energy=                    0.147458
 Thermal correction to Enthalpy=                  0.148402
 Thermal correction to Gibbs Free Energy=         0.097916
 Sum of electronic and zero-point Energies=           -835.166277
 Sum of electronic and thermal Energies=              -835.155537
 Sum of electronic and thermal Enthalpies=            -835.154593
 Sum of electronic and thermal Free Energies=         -835.205079

                     E (Thermal)             CV                S
                      KCal/Mol        Cal/Mol-Kelvin    Cal/Mol-Kelvin
 Total                   92.531             35.030            106.256
 Electronic               0.000              0.000              0.000
 Translational            0.889              2.981             40.785
 Rotational               0.889              2.981             29.235
 Vibrational             90.754             29.068             36.236
 Vibration     1          0.593              1.986              7.390
 Vibration     2          0.596              1.975              4.593
 Vibration     3          0.597              1.972              4.344
 Vibration     4          0.598              1.970              4.253
 Vibration     5          0.617              1.906              2.717
 Vibration     6          0.637              1.841              2.143
 Vibration     7          0.641              1.831              2.077
 Vibration     8          0.646              1.814              1.977
 Vibration     9          0.710              1.623              1.278
 Vibration    10          0.744              1.528              1.069
 Vibration    11          0.768              1.464              0.953
 Vibration    12          0.799              1.384              0.829
 Vibration    13          0.906              1.138              0.542
 Vibration    14          0.919              1.110              0.517
 Vibration    15          0.935              1.079              0.489

 Normal termination of Gaussian 16 at Fri Apr  1 14:09:04 2022.
