 Gaussian 16, Revision C.01,
 Gaussian 16:  ES64L-G16RevC.01  3-Jul-2019

 -----------------------
 # wb97xd 6-31++g** freq
 -----------------------

 /scratch/hvehkama/kubeckaj/OTHERS/Myllys19_synergy/Structures_synergy/
 calcs/DFT_opt/calc-LM/1sa1am.xyz
 ----------------------------------------------------------------------
 Symbolic Z-matrix:
 Charge =  0 Multiplicity = 1

                         Standard orientation:
 ---------------------------------------------------------------------
 Center     Atomic      Atomic             Coordinates (Angstroms)
 Number     Number       Type             X           Y           Z
 ---------------------------------------------------------------------
      1          7           0       -2.766484    0.040318   -0.051756
      2          1           0       -3.458359   -0.685825   -0.207532
      3          1           0       -1.376277   -0.232287   -0.726882
      4          1           0       -3.187901    0.935068   -0.279960
      5          1           0       -2.524394    0.045522    0.936992
      6         16           0        0.615837   -0.116996    0.091080
      7          8           0       -0.061314   -0.145831    1.368732
      8          8           0       -0.406255   -0.436353   -1.049801
      9          8           0        0.946883    1.448158   -0.157603
     10          8           0        1.823031   -0.863935   -0.159822
     11          1           0        1.640162    1.510908   -0.829651
 ---------------------------------------------------------------------

 SCF Done:  E(RwB97XD) =  -756.702646746     A.U. after   14 cycles

 The electronic state is 1-A.
 Alpha  occ. eigenvalues --  -89.33739 -19.34306 -19.32132 -19.28841 -19.28696
 Alpha  occ. eigenvalues --  -14.49867  -8.31217  -6.26317  -6.26217  -6.26099
 Alpha  occ. eigenvalues --   -1.29213  -1.16533  -1.14189  -1.13309  -1.01635
 Alpha  occ. eigenvalues --   -0.77421  -0.69832  -0.61819  -0.61194  -0.61129
 Alpha  occ. eigenvalues --   -0.59456  -0.56176  -0.52468  -0.49017  -0.45922
 Alpha  occ. eigenvalues --   -0.45549  -0.42941  -0.41316  -0.40630  -0.39677
 Alpha virt. eigenvalues --    0.02441   0.04826   0.06343   0.07572   0.09355
 Alpha virt. eigenvalues --    0.11771   0.12337   0.13853   0.14515   0.15531
 Alpha virt. eigenvalues --    0.17221   0.17940   0.19263   0.20264   0.21584

 Mulliken charges:
               1
     1  N   -0.996497
     2  H    0.340112
     3  H    0.498129
     4  H    0.340569
     5  H    0.374965
     6  S    1.630002
     7  O   -0.675963
     8  O   -0.681289
     9  O   -0.638539
    10  O   -0.595326
    11  H    0.403837
 Sum of Mulliken charges =  -0.00000

 Dipole moment (field-independent basis, Debye):
    X=             -4.8741    Y=              2.0564    Z=             -1.4769  Tot=              5.4925
 Quadrupole moment (field-independent basis, Debye-Ang):
   XX=            -27.7755   YY=            -42.8988   ZZ=            -45.8290
   XY=              4.4992   XZ=             -2.2000   YZ=             -2.9578

  Exact polarizability:      54.532      -1.178      41.138      -2.900      -0.105      41.660
 Approx polarizability:      53.089      -2.572      44.548      -4.352       0.727      47.842

                      1                      2                      3
                      A                      A                      A
 Frequencies --     40.6137                79.1151               117.0044
 Red. masses --      4.8239                 1.0585                 3.8650
 Frc consts  --      0.0047                 0.0039                 0.0312
 IR Inten    --      6.6577                 0.5487                15.3537

                      4                      5                      6
                      A                      A                      A
 Frequencies --    242.1649               275.3723               356.4921
 Red. masses --      1.5105                 2.8541                 1.9634
 Frc consts  --      0.0522                 0.1275                 0.1470
 IR Inten    --     98.0811                30.9330                10.4314

                      7                      8                      9
                      A                      A                      A
 Frequencies --    376.8797               417.0401               466.0629
 Red. masses --      2.0739                 3.1196                 1.7102
 Frc consts  --      0.1736                 0.3197                 0.2189
 IR Inten    --     20.9824                86.4869                14.8602

                     10                     11                     12
                      A                      A                      A
 Frequencies --    523.6761               540.5934               558.5553
 Red. masses --      4.9460                13.6892                 5.0660
 Frc consts  --      0.7992                 2.3571                 0.9312
 IR Inten    --     25.3749                28.4627                56.6841

                     13                     14                     15
                      A                      A                      A
 Frequencies --    815.0522               936.6271              1157.4989
 Red. masses --     15.4585                16.4530                 1.2031
 Frc consts  --      6.0505                 8.5041                 0.9497
 IR Inten    --    175.2820               290.0520                 9.0979

                     16                     17                     18
                      A                      A                      A
 Frequencies --   1169.0755              1186.7718              1207.0172
 Red. masses --      1.1701                 1.2842                 5.0134
 Frc consts  --      0.9422                 1.0657                 4.3033
 IR Inten    --    177.9957               212.2188               314.1121

                     19                     20                     21
                      A                      A                      A
 Frequencies --   1402.7180              1534.7643              1672.0948
 Red. masses --      4.9634                 1.2237                 1.0551
 Frc consts  --      5.7540                 1.6982                 1.7380
 IR Inten    --    221.0180               162.7991                15.7414

                     22                     23                     24
                      A                      A                      A
 Frequencies --   1683.8218              2441.0882              3516.3455
 Red. masses --      1.0607                 1.0910                 1.0277
 Frc consts  --      1.7718                 3.8303                 7.4867
 IR Inten    --     25.5907              2940.7261                 3.9417

                     25                     26                     27
                      A                      A                      A
 Frequencies --   3649.8203              3671.3033              3861.4933
 Red. masses --      1.0906                 1.0915                 1.0660
 Frc consts  --      8.5599                 8.6682                 9.3650
 IR Inten    --     38.9695                26.7324               123.5231

 - Thermochemistry -
 -------------------
 Temperature   298.150 Kelvin.  Pressure   1.00000 Atm.
 Atom     1 has atomic number  7 and mass  14.00307

 Molecular mass:   114.99393 amu.
 Principal axes and moments of inertia in atomic units:
                           1         2         3
     Eigenvalues --   371.09111 973.38801 984.60970
           X            0.99992   0.00797  -0.01006
           Y           -0.01141   0.91143  -0.41129
           Z            0.00589   0.41137   0.91145
 This molecule is an asymmetric top.
 Rotational symmetry number  1.
 Rotational temperatures (Kelvin)      0.23340     0.08898     0.08797
 Rotational constants (GHZ):           4.86334     1.85408     1.83295
 Zero-point vibrational energy     202761.4 (Joules/Mol)
                                   48.46114 (Kcal/Mol)
 Warning -- explicit consideration of  12 degrees of freedom as
           vibrations may cause significant error
 Vibrational temperatures:     58.43   113.83   168.34   348.42   396.20
          (Kelvin)            512.91   542.25   600.03   670.56   753.45
                              777.79   803.64  1172.68  1347.60  1665.38
                             1682.04  1707.50  1736.63  2018.20  2208.18
                             2405.77  2422.64  3512.18  5059.24  5251.28
                             5282.19  5555.83

 Zero-point correction=                           0.077228 (Hartree/Particle)
 Thermal correction to Energy=                    0.085370
 Thermal correction to Enthalpy=                  0.086314
 Thermal correction to Gibbs Free Energy=         0.043929
 Sum of electronic and zero-point Energies=           -756.625419
 Sum of electronic and thermal Energies=              -756.617277
 Sum of electronic and thermal Enthalpies=            -756.616332
 Sum of electronic and thermal Free Energies=         -756.658718

                     E (Thermal)             CV                S
                      KCal/Mol        Cal/Mol-Kelvin    Cal/Mol-Kelvin
 Total                   53.571             26.859             89.208
 Electronic               0.000              0.000              0.000
 Translational            0.889              2.981             40.134
 Rotational               0.889              2.981             27.366
 Vibrational             51.793             20.898             21.707
 Vibration     1          0.594              1.981              5.229
 Vibration     2          0.600              1.963              3.913
 Vibration     3          0.608              1.935              3.149
 Vibration     4          0.658              1.776              1.787
 Vibration     5          0.677              1.719              1.562
 Vibration     6          0.732              1.562              1.137
 Vibration     7          0.747              1.519              1.052
 Vibration     8          0.780              1.433              0.902
 Vibration     9          0.823              1.325              0.749
 Vibration    10          0.879              1.198              0.601
 Vibration    11          0.896              1.160              0.564
 Vibration    12          0.914              1.121              0.527

 Normal termination of Gaussian 16 at Fri Apr  1 14:07:24 2022.
