                         Program Version 5.0.3 -  RELEASE  -
|  1> ! B97-3c ENGRAD
|  2> %pal nprocs 1
|  3>     end
|  4> %Maxcore 3000.00
|  5> * xyzfile 0 1 4sa4am-44_10_152.xyz
|  6>
|  7>
|  8>                          ****END OF INPUT****

CARTESIAN COORDINATES (ANGSTROEM)
---------------------------------
  S      2.052559   -0.466825    0.667101
  O      2.665602   -1.425091   -0.231728
  O      0.719027   -0.072943    0.189637
  O      2.052302   -0.858348    2.061001
  O      2.929371    0.873682    0.654583
  H      2.862659    1.297021   -0.237311
  S     -2.265554    0.120769    2.484152
  O     -1.969051    1.542788    2.250415
  O     -1.028841   -0.659405    2.574269
  O     -3.208510   -0.129334    3.521081
  O     -2.945129   -0.319501    1.072005
  H     -2.754218   -1.250566    0.845288
  S      1.140379    2.658639   -1.605637
  O      0.743612    2.869460   -0.220341
  O      2.414897    1.948791   -1.722111
  O      0.103260    2.086586   -2.430701
  O      1.385333    4.118022   -2.240739
  H      2.135714    4.532160   -1.800719
  S     -1.364602   -2.308067   -1.421673
  O      0.004787   -2.802460   -1.469529
  O     -2.008049   -2.601992   -0.148957
  O     -1.477575   -0.928273   -1.849963
  O     -2.193153   -3.120206   -2.541220
  H     -2.365461   -4.012761   -2.222717
  N      1.259265   -0.568818   -2.483601
  H      0.268495   -0.467379   -2.240955
  H      1.700344    0.351801   -2.458288
  H      1.693502   -1.151835   -1.758819
  H      1.342275   -1.007175   -3.388036
  N     -1.684073    1.402990   -0.492170
  H     -2.030607    1.771745    0.394231
  H     -0.841715    0.861727   -0.289145
  H     -2.360561    0.761045   -0.890674
  H     -1.433365    2.129658   -1.154178
  N      0.209175   -2.703598    1.338605
  H     -0.424351   -3.483398    1.436959
  H     -0.273470   -1.843587    1.660773
  H      1.057692   -2.803221    1.880851
  H      0.440703   -2.582486    0.349878
  N      0.698854    1.659273    2.396499
  H      1.007383    1.976742    1.475926
  H     -0.341451    1.655720    2.404197
  H      1.015555    0.695079    2.519016
  H      1.066990    2.253571    3.122742

 Total Charge           Charge          ....    0
 Multiplicity           Mult            ....    1
 Number of Electrons    NEL             ....  240
 Basis Dimension        Dim             ....  608

ORBITAL ENERGIES
----------------

  NO   OCC          E(Eh)            E(eV)
   0   2.0000     -88.278943     -2402.1922
   1   2.0000     -88.277274     -2402.1467
   2   2.0000     -88.267391     -2401.8778
   3   2.0000     -88.254444     -2401.5255
   4   2.0000     -18.797451      -511.5047
   5   2.0000     -18.796099      -511.4679
   6   2.0000     -18.773983      -510.8661
   7   2.0000     -18.765226      -510.6278
   8   2.0000     -18.755219      -510.3554
   9   2.0000     -18.748606      -510.1755
  10   2.0000     -18.746542      -510.1193
  11   2.0000     -18.746035      -510.1055
  12   2.0000     -18.742667      -510.0139
  13   2.0000     -18.742445      -510.0079
  14   2.0000     -18.739565      -509.9295
  15   2.0000     -18.737118      -509.8629
  16   2.0000     -18.736749      -509.8529
  17   2.0000     -18.734445      -509.7902
  18   2.0000     -18.725900      -509.5576
  19   2.0000     -18.712920      -509.2044
  20   2.0000     -14.078990      -383.1088
  21   2.0000     -14.075412      -383.0114
  22   2.0000     -14.071137      -382.8951
  23   2.0000     -14.070021      -382.8647
  24   2.0000      -7.940059      -216.0600
  25   2.0000      -7.938299      -216.0121
  26   2.0000      -7.928612      -215.7485
  27   2.0000      -7.915438      -215.3900
  28   2.0000      -5.970727      -162.4718
  29   2.0000      -5.969129      -162.4282
  30   2.0000      -5.967558      -162.3855
  31   2.0000      -5.967373      -162.3805
  32   2.0000      -5.965707      -162.3351
  33   2.0000      -5.965579      -162.3317
  34   2.0000      -5.959120      -162.1559
  35   2.0000      -5.956510      -162.0849
  36   2.0000      -5.955711      -162.0631
  37   2.0000      -5.946331      -161.8079
  38   2.0000      -5.943349      -161.7267
  39   2.0000      -5.942110      -161.6930
  40   2.0000      -1.101634       -29.9770
  41   2.0000      -1.099216       -29.9112
  42   2.0000      -1.090306       -29.6687
  43   2.0000      -1.074547       -29.2399
  44   2.0000      -0.972808       -26.4715
  45   2.0000      -0.970845       -26.4180
  46   2.0000      -0.955570       -26.0024
  47   2.0000      -0.946576       -25.7576
  48   2.0000      -0.943315       -25.6689
  49   2.0000      -0.941304       -25.6142
  50   2.0000      -0.939924       -25.5766
  51   2.0000      -0.938258       -25.5313
  52   2.0000      -0.934410       -25.4266
  53   2.0000      -0.927700       -25.2440
  54   2.0000      -0.925357       -25.1802
  55   2.0000      -0.918658       -24.9980
  56   2.0000      -0.905871       -24.6500
  57   2.0000      -0.903746       -24.5922
  58   2.0000      -0.899293       -24.4710
  59   2.0000      -0.897737       -24.4287
  60   2.0000      -0.606238       -16.4966
  61   2.0000      -0.604131       -16.4392
  62   2.0000      -0.584421       -15.9029
  63   2.0000      -0.580392       -15.7933
  64   2.0000      -0.532768       -14.4974
  65   2.0000      -0.529880       -14.4188
  66   2.0000      -0.527601       -14.3568
  67   2.0000      -0.524456       -14.2712
  68   2.0000      -0.521830       -14.1997
  69   2.0000      -0.519748       -14.1431
  70   2.0000      -0.518257       -14.1025
  71   2.0000      -0.516793       -14.0627
  72   2.0000      -0.514638       -14.0040
  73   2.0000      -0.512215       -13.9381
  74   2.0000      -0.510079       -13.8799
  75   2.0000      -0.504127       -13.7180
  76   2.0000      -0.495945       -13.4954
  77   2.0000      -0.493385       -13.4257
  78   2.0000      -0.476853       -12.9758
  79   2.0000      -0.467029       -12.7085
  80   2.0000      -0.453179       -12.3316
  81   2.0000      -0.448835       -12.2134
  82   2.0000      -0.447366       -12.1735
  83   2.0000      -0.443514       -12.0686
  84   2.0000      -0.439920       -11.9708
  85   2.0000      -0.434531       -11.8242
  86   2.0000      -0.430615       -11.7176
  87   2.0000      -0.411625       -11.2009
  88   2.0000      -0.404239       -10.9999
  89   2.0000      -0.400783       -10.9059
  90   2.0000      -0.388531       -10.5725
  91   2.0000      -0.378716       -10.3054
  92   2.0000      -0.343889        -9.3577
  93   2.0000      -0.340091        -9.2543
  94   2.0000      -0.336038        -9.1441
  95   2.0000      -0.332974        -9.0607
  96   2.0000      -0.330088        -8.9822
  97   2.0000      -0.327516        -8.9122
  98   2.0000      -0.323606        -8.8058
  99   2.0000      -0.322058        -8.7636
 100   2.0000      -0.321359        -8.7446
 101   2.0000      -0.319977        -8.7070
 102   2.0000      -0.313719        -8.5367
 103   2.0000      -0.311849        -8.4858
 104   2.0000      -0.307526        -8.3682
 105   2.0000      -0.303006        -8.2452
 106   2.0000      -0.301345        -8.2000
 107   2.0000      -0.295771        -8.0483
 108   2.0000      -0.282865        -7.6971
 109   2.0000      -0.280999        -7.6464
 110   2.0000      -0.274944        -7.4816
 111   2.0000      -0.267269        -7.2728
 112   2.0000      -0.263868        -7.1802
 113   2.0000      -0.261636        -7.1195
 114   2.0000      -0.253836        -6.9072
 115   2.0000      -0.251642        -6.8475
 116   2.0000      -0.251374        -6.8402
 117   2.0000      -0.243744        -6.6326
 118   2.0000      -0.237618        -6.4659
 119   2.0000      -0.225867        -6.1461
 120   0.0000      -0.018128        -0.4933
 121   0.0000      -0.003556        -0.0968
 122   0.0000       0.007348         0.2000
 123   0.0000       0.013450         0.3660
 124   0.0000       0.016729         0.4552

MULLIKEN ATOMIC CHARGES
-----------------------
   0 S :    0.929796
   1 O :   -0.544943
   2 O :   -0.581204
   3 O :   -0.562651
   4 O :   -0.587553
   5 H :    0.429197
   6 S :    1.225659
   7 O :   -0.725625
   8 O :   -0.661003
   9 O :   -0.433689
  10 O :   -0.701430
  11 H :    0.447753
  12 S :    1.260755
  13 O :   -0.588329
  14 O :   -0.691155
  15 O :   -0.627551
  16 O :   -0.609825
  17 H :    0.457853
  18 S :    1.204399
  19 O :   -0.596271
  20 O :   -0.630390
  21 O :   -0.631804
  22 O :   -0.621013
  23 H :    0.457562
  24 N :   -0.784043
  25 H :    0.398192
  26 H :    0.397664
  27 H :    0.407462
  28 H :    0.380855
  29 N :   -0.786987
  30 H :    0.403700
  31 H :    0.489128
  32 H :    0.399738
  33 H :    0.406581
  34 N :   -0.855767
  35 H :    0.389754
  36 H :    0.496822
  37 H :    0.404391
  38 H :    0.414874
  39 N :   -0.786879
  40 H :    0.434077
  41 H :    0.396014
  42 H :    0.400314
  43 H :    0.375570
Sum of atomic charges:   -0.0000000

LOEWDIN ATOMIC CHARGES
----------------------
   0 S :    1.866507
   1 O :   -0.782986
   2 O :   -0.920539
   3 O :   -0.804548
   4 O :   -0.748883
   5 H :    0.376510
   6 S :    1.873168
   7 O :   -0.879461
   8 O :   -0.862249
   9 O :   -0.671778
  10 O :   -0.789255
  11 H :    0.373909
  12 S :    1.875483
  13 O :   -0.818204
  14 O :   -0.821242
  15 O :   -0.799570
  16 O :   -0.673490
  17 H :    0.368847
  18 S :    1.877898
  19 O :   -0.828936
  20 O :   -0.808490
  21 O :   -0.828271
  22 O :   -0.677533
  23 H :    0.368730
  24 N :   -0.380350
  25 H :    0.338144
  26 H :    0.325799
  27 H :    0.340064
  28 H :    0.300727
  29 N :   -0.355653
  30 H :    0.331064
  31 H :    0.338170
  32 H :    0.329712
  33 H :    0.322576
  34 N :   -0.382633
  35 H :    0.308621
  36 H :    0.352454
  37 H :    0.317758
  38 H :    0.334696
  39 N :   -0.395922
  40 H :    0.335328
  41 H :    0.342420
  42 H :    0.333618
  43 H :    0.297789

  Mayer bond orders larger than 0.100000
B(  0-S ,  1-O ) :   1.6299 B(  0-S ,  2-O ) :   1.4237 B(  0-S ,  3-O ) :   1.5807
B(  0-S ,  4-O ) :   1.0493 B(  1-O , 27-H ) :   0.1226 B(  3-O , 42-H ) :   0.1056
B(  4-O ,  5-H ) :   0.6323 B(  5-H , 14-O ) :   0.1642 B(  6-S ,  7-O ) :   1.3784
B(  6-S ,  8-O ) :   1.4856 B(  6-S ,  9-O ) :   1.9286 B(  6-S , 10-O ) :   0.9006
B(  7-O , 30-H ) :   0.1042 B(  7-O , 41-H ) :   0.1982 B( 10-O , 11-H ) :   0.6603
B( 11-H , 20-O ) :   0.1194 B( 12-S , 13-O ) :   1.5466 B( 12-S , 14-O ) :   1.3514
B( 12-S , 15-O ) :   1.5941 B( 12-S , 16-O ) :   1.0946 B( 14-O , 26-H ) :   0.1212
B( 16-O , 17-H ) :   0.7274 B( 18-S , 19-O ) :   1.5356 B( 18-S , 20-O ) :   1.4941
B( 18-S , 21-O ) :   1.5155 B( 18-S , 22-O ) :   1.0858 B( 19-O , 38-H ) :   0.1086
B( 22-O , 23-H ) :   0.7281 B( 24-N , 25-H ) :   0.7524 B( 24-N , 26-H ) :   0.7337
B( 24-N , 27-H ) :   0.7159 B( 24-N , 28-H ) :   0.8343 B( 29-N , 30-H ) :   0.7304
B( 29-N , 31-H ) :   0.8204 B( 29-N , 32-H ) :   0.7838 B( 29-N , 33-H ) :   0.7645
B( 34-N , 35-H ) :   0.8171 B( 34-N , 36-H ) :   0.6837 B( 34-N , 37-H ) :   0.7963
B( 34-N , 38-H ) :   0.7188 B( 39-N , 40-H ) :   0.7491 B( 39-N , 41-H ) :   0.6599
B( 39-N , 42-H ) :   0.7311 B( 39-N , 43-H ) :   0.8365

Dispersion correction           -0.139874335
FINAL SINGLE POINT ENERGY     -3026.636162965394
Dispersion correction            ... done

DIPOLE MOMENT
-------------
                                X             Y             Z
Electronic contribution:     -1.90018       0.22295      -0.37200
Nuclear contribution   :      3.06054      -0.50495      -0.57225
                        -----------------------------------------
Total Dipole Moment    :      1.16036      -0.28199      -0.94425
                        -----------------------------------------
Magnitude (a.u.)       :      1.52235
Magnitude (Debye)      :      3.86951

Rotational constants in cm-1:     0.006717     0.005180     0.004461
Rotational constants in MHz :   201.364230   155.293926   133.735834

                             ****ORCA TERMINATED NORMALLY****
TOTAL RUN TIME: 0 days 0 hours 4 minutes 32 seconds 341 msec
