                         Program Version 5.0.3 -  RELEASE  -
|  1> ! B97-3c ENGRAD
|  2> %pal nprocs 1
|  3>     end
|  4> %Maxcore 3000.00
|  5> * xyzfile 0 1 4sa4am-44_2_856.xyz
|  6>
|  7>
|  8>                          ****END OF INPUT****

CARTESIAN COORDINATES (ANGSTROEM)
---------------------------------
  S     -0.377709   -0.430747   -1.994054
  O     -1.166308   -0.833517   -0.833661
  O      0.254694    0.882790   -1.814195
  O      0.586467   -1.438398   -2.391707
  O     -1.409441   -0.284896   -3.190011
  H     -2.178116    0.218999   -2.838312
  S     -3.310603    2.262537   -1.169896
  O     -2.300807    3.057294   -1.827254
  O     -3.414822    0.902282   -1.676283
  O     -3.215709    2.304503    0.290314
  O     -4.730431    2.972052   -1.460308
  H     -4.793463    3.149145   -2.405415
  S      3.720528   -1.782070    1.084298
  O      2.712154   -2.016562    2.110481
  O      3.307398   -2.374444   -0.196838
  O      4.162269   -0.421749    0.952190
  O      5.034297   -2.589142    1.550260
  H      4.780390   -3.473640    1.833935
  S      0.171479    0.185018    2.147064
  O     -0.685845   -1.008285    2.128851
  O      0.931472    0.303701    0.890239
  O     -0.548516    1.385413    2.484396
  O      1.250186   -0.032591    3.284766
  H      1.898155   -0.710337    2.979166
  N     -0.459793    2.654255    0.086666
  H     -0.454292    3.522701   -0.429663
  H     -0.265010    1.880133   -0.576593
  H      0.211602    2.624241    0.843751
  H     -1.399205    2.509137    0.465205
  N     -3.039126   -0.275792    0.960696
  H     -3.826485   -0.707343    1.417046
  H     -2.960765   -0.567002   -0.012891
  H     -3.143641    0.751877    0.928600
  H     -2.148875   -0.517414    1.432912
  N      0.677372   -2.488608    0.268318
  H      1.661933   -2.657899    0.005017
  H      0.478256   -2.890405    1.174680
  H      0.567955   -1.474394    0.363262
  H      0.041198   -2.802246   -0.452333
  N      2.694954    0.048746   -1.294395
  H      2.209567   -0.725567   -1.756775
  H      3.651413   -0.206251   -1.069466
  H      2.625149    0.869997   -1.878741
  H      2.200074    0.224477   -0.413323

 Total Charge           Charge          ....    0
 Multiplicity           Mult            ....    1
 Number of Electrons    NEL             ....  240
 Basis Dimension        Dim             ....  608

ORBITAL ENERGIES
----------------

  NO   OCC          E(Eh)            E(eV)
   0   2.0000     -88.269588     -2401.9376
   1   2.0000     -88.266852     -2401.8631
   2   2.0000     -88.264634     -2401.8028
   3   2.0000     -88.264033     -2401.7864
   4   2.0000     -18.788441      -511.2595
   5   2.0000     -18.787300      -511.2284
   6   2.0000     -18.770424      -510.7692
   7   2.0000     -18.768127      -510.7067
   8   2.0000     -18.749472      -510.1991
   9   2.0000     -18.738474      -509.8998
  10   2.0000     -18.738114      -509.8900
  11   2.0000     -18.737317      -509.8683
  12   2.0000     -18.736728      -509.8523
  13   2.0000     -18.735405      -509.8163
  14   2.0000     -18.732455      -509.7360
  15   2.0000     -18.732416      -509.7350
  16   2.0000     -18.731593      -509.7126
  17   2.0000     -18.729884      -509.6660
  18   2.0000     -18.729856      -509.6653
  19   2.0000     -18.725906      -509.5578
  20   2.0000     -14.086358      -383.3093
  21   2.0000     -14.071370      -382.9014
  22   2.0000     -14.070347      -382.8736
  23   2.0000     -14.070092      -382.8667
  24   2.0000      -7.930796      -215.8079
  25   2.0000      -7.928060      -215.7335
  26   2.0000      -7.925172      -215.6549
  27   2.0000      -7.924783      -215.6443
  28   2.0000      -5.961484      -162.2202
  29   2.0000      -5.958766      -162.1463
  30   2.0000      -5.958441      -162.1374
  31   2.0000      -5.957893      -162.1225
  32   2.0000      -5.955545      -162.0586
  33   2.0000      -5.955318      -162.0524
  34   2.0000      -5.955316      -162.0524
  35   2.0000      -5.955096      -162.0464
  36   2.0000      -5.953116      -161.9925
  37   2.0000      -5.952747      -161.9825
  38   2.0000      -5.952490      -161.9755
  39   2.0000      -5.952375      -161.9724
  40   2.0000      -1.092309       -29.7232
  41   2.0000      -1.089735       -29.6532
  42   2.0000      -1.085160       -29.5287
  43   2.0000      -1.083568       -29.4854
  44   2.0000      -0.964366       -26.2417
  45   2.0000      -0.962325       -26.1862
  46   2.0000      -0.952487       -25.9185
  47   2.0000      -0.949120       -25.8269
  48   2.0000      -0.937148       -25.5011
  49   2.0000      -0.935024       -25.4433
  50   2.0000      -0.931366       -25.3438
  51   2.0000      -0.929322       -25.2881
  52   2.0000      -0.927960       -25.2511
  53   2.0000      -0.927335       -25.2341
  54   2.0000      -0.925549       -25.1855
  55   2.0000      -0.922470       -25.1017
  56   2.0000      -0.911065       -24.7913
  57   2.0000      -0.899803       -24.4849
  58   2.0000      -0.899598       -24.4793
  59   2.0000      -0.896511       -24.3953
  60   2.0000      -0.598343       -16.2817
  61   2.0000      -0.595774       -16.2118
  62   2.0000      -0.584537       -15.9060
  63   2.0000      -0.579688       -15.7741
  64   2.0000      -0.534209       -14.5366
  65   2.0000      -0.530563       -14.4374
  66   2.0000      -0.527924       -14.3655
  67   2.0000      -0.524980       -14.2854
  68   2.0000      -0.522600       -14.2207
  69   2.0000      -0.520915       -14.1748
  70   2.0000      -0.515198       -14.0193
  71   2.0000      -0.514759       -14.0073
  72   2.0000      -0.510782       -13.8991
  73   2.0000      -0.510507       -13.8916
  74   2.0000      -0.507496       -13.8097
  75   2.0000      -0.503245       -13.6940
  76   2.0000      -0.488983       -13.3059
  77   2.0000      -0.486083       -13.2270
  78   2.0000      -0.476716       -12.9721
  79   2.0000      -0.474856       -12.9215
  80   2.0000      -0.445952       -12.1350
  81   2.0000      -0.443103       -12.0575
  82   2.0000      -0.439970       -11.9722
  83   2.0000      -0.437376       -11.9016
  84   2.0000      -0.435663       -11.8550
  85   2.0000      -0.433476       -11.7955
  86   2.0000      -0.429065       -11.6755
  87   2.0000      -0.426053       -11.5935
  88   2.0000      -0.394347       -10.7307
  89   2.0000      -0.390405       -10.6235
  90   2.0000      -0.382019       -10.3953
  91   2.0000      -0.379888       -10.3373
  92   2.0000      -0.333434        -9.0732
  93   2.0000      -0.331060        -9.0086
  94   2.0000      -0.328167        -8.9299
  95   2.0000      -0.326063        -8.8726
  96   2.0000      -0.323815        -8.8115
  97   2.0000      -0.321475        -8.7478
  98   2.0000      -0.320213        -8.7135
  99   2.0000      -0.318455        -8.6656
 100   2.0000      -0.315541        -8.5863
 101   2.0000      -0.313956        -8.5432
 102   2.0000      -0.311621        -8.4796
 103   2.0000      -0.309448        -8.4205
 104   2.0000      -0.308817        -8.4033
 105   2.0000      -0.307681        -8.3724
 106   2.0000      -0.306261        -8.3338
 107   2.0000      -0.296595        -8.0708
 108   2.0000      -0.276374        -7.5205
 109   2.0000      -0.270150        -7.3512
 110   2.0000      -0.267788        -7.2869
 111   2.0000      -0.260062        -7.0766
 112   2.0000      -0.254923        -6.9368
 113   2.0000      -0.254198        -6.9171
 114   2.0000      -0.246758        -6.7146
 115   2.0000      -0.243421        -6.6238
 116   2.0000      -0.242166        -6.5897
 117   2.0000      -0.241273        -6.5654
 118   2.0000      -0.239410        -6.5147
 119   2.0000      -0.237781        -6.4704
 120   0.0000      -0.016428        -0.4470
 121   0.0000      -0.001254        -0.0341
 122   0.0000       0.007855         0.2137
 123   0.0000       0.012534         0.3411
 124   0.0000       0.024448         0.6653

MULLIKEN ATOMIC CHARGES
-----------------------
   0 S :    1.187492
   1 O :   -0.613727
   2 O :   -0.635268
   3 O :   -0.613677
   4 O :   -0.587465
   5 H :    0.444555
   6 S :    1.163791
   7 O :   -0.523263
   8 O :   -0.581175
   9 O :   -0.698704
  10 O :   -0.619126
  11 H :    0.459340
  12 S :    1.212657
  13 O :   -0.622373
  14 O :   -0.665420
  15 O :   -0.556565
  16 O :   -0.615051
  17 H :    0.454288
  18 S :    1.183056
  19 O :   -0.656224
  20 O :   -0.667710
  21 O :   -0.567943
  22 O :   -0.579471
  23 H :    0.441696
  24 N :   -0.815536
  25 H :    0.389817
  26 H :    0.437798
  27 H :    0.398259
  28 H :    0.416569
  29 N :   -0.786388
  30 H :    0.370144
  31 H :    0.407746
  32 H :    0.401966
  33 H :    0.406426
  34 N :   -0.707339
  35 H :    0.405708
  36 H :    0.385646
  37 H :    0.317058
  38 H :    0.395243
  39 N :   -0.811483
  40 H :    0.412627
  41 H :    0.415587
  42 H :    0.391447
  43 H :    0.424994
Sum of atomic charges:   -0.0000000

LOEWDIN ATOMIC CHARGES
----------------------
   0 S :    1.882712
   1 O :   -0.880438
   2 O :   -0.873467
   3 O :   -0.802147
   4 O :   -0.688613
   5 H :    0.376643
   6 S :    1.867817
   7 O :   -0.766465
   8 O :   -0.799851
   9 O :   -0.863875
  10 O :   -0.680696
  11 H :    0.369194
  12 S :    1.867183
  13 O :   -0.807538
  14 O :   -0.867455
  15 O :   -0.759821
  16 O :   -0.677827
  17 H :    0.367253
  18 S :    1.882847
  19 O :   -0.861731
  20 O :   -0.921710
  21 O :   -0.765316
  22 O :   -0.692396
  23 H :    0.378982
  24 N :   -0.386318
  25 H :    0.310359
  26 H :    0.348294
  27 H :    0.317720
  28 H :    0.337416
  29 N :   -0.408856
  30 H :    0.295683
  31 H :    0.338254
  32 H :    0.341264
  33 H :    0.340870
  34 N :   -0.372865
  35 H :    0.336581
  36 H :    0.313888
  37 H :    0.342319
  38 H :    0.314248
  39 N :   -0.370813
  40 H :    0.339037
  41 H :    0.325187
  42 H :    0.310868
  43 H :    0.343578

  Mayer bond orders larger than 0.100000
B(  0-S ,  1-O ) :   1.4776 B(  0-S ,  2-O ) :   1.4506 B(  0-S ,  3-O ) :   1.5911
B(  0-S ,  4-O ) :   1.1467 B(  2-O , 26-H ) :   0.1094 B(  3-O , 40-H ) :   0.1038
B(  4-O ,  5-H ) :   0.6601 B(  5-H ,  8-O ) :   0.1100 B(  6-S ,  7-O ) :   1.6782
B(  6-S ,  8-O ) :   1.5045 B(  6-S ,  9-O ) :   1.4093 B(  6-S , 10-O ) :   1.0752
B(  9-O , 28-H ) :   0.1019 B(  9-O , 32-H ) :   0.1540 B( 10-O , 11-H ) :   0.7302
B( 12-S , 13-O ) :   1.4701 B( 12-S , 14-O ) :   1.4057 B( 12-S , 15-O ) :   1.6810
B( 12-S , 16-O ) :   1.0891 B( 13-O , 23-H ) :   0.1225 B( 14-O , 35-H ) :   0.1592
B( 16-O , 17-H ) :   0.7298 B( 18-S , 19-O ) :   1.4421 B( 18-S , 20-O ) :   1.3700
B( 18-S , 21-O ) :   1.7146 B( 18-S , 22-O ) :   1.1369 B( 19-O , 33-H ) :   0.1892
B( 22-O , 23-H ) :   0.6494 B( 24-N , 25-H ) :   0.8184 B( 24-N , 26-H ) :   0.7144
B( 24-N , 27-H ) :   0.7893 B( 24-N , 28-H ) :   0.7222 B( 29-N , 30-H ) :   0.8406
B( 29-N , 31-H ) :   0.7655 B( 29-N , 32-H ) :   0.7008 B( 29-N , 33-H ) :   0.6627
B( 34-N , 35-H ) :   0.6785 B( 34-N , 36-H ) :   0.8123 B( 34-N , 37-H ) :   0.8457
B( 34-N , 38-H ) :   0.7965 B( 39-N , 40-H ) :   0.7248 B( 39-N , 41-H ) :   0.7686
B( 39-N , 42-H ) :   0.8148 B( 39-N , 43-H ) :   0.7334

Dispersion correction           -0.135551482
FINAL SINGLE POINT ENERGY     -3026.626424971701
Dispersion correction            ... done

DIPOLE MOMENT
-------------
                                X             Y             Z
Electronic contribution:      0.85340       1.06303       0.19796
Nuclear contribution   :     -1.45158      -1.68049      -0.64597
                        -----------------------------------------
Total Dipole Moment    :     -0.59817      -0.61746      -0.44801
                        -----------------------------------------
Magnitude (a.u.)       :      0.96943
Magnitude (Debye)      :      2.46409

Rotational constants in cm-1:     0.010818     0.003644     0.003207
Rotational constants in MHz :   324.330416   109.234951    96.135665

                             ****ORCA TERMINATED NORMALLY****
TOTAL RUN TIME: 0 days 0 hours 4 minutes 34 seconds 861 msec
