                         Program Version 5.0.3 -  RELEASE  -
|  1> ! B97-3c ENGRAD
|  2> %pal nprocs 1
|  3>     end
|  4> %Maxcore 3000.00
|  5> * xyzfile 0 1 4sa4am-44_10_107.xyz
|  6>
|  7>
|  8>                          ****END OF INPUT****

CARTESIAN COORDINATES (ANGSTROEM)
---------------------------------
  S      2.931935   -0.611574    2.187454
  O      1.933103    0.047999    2.992448
  O      2.488570   -1.945698    1.744417
  O      3.469757    0.161118    1.087289
  O      4.205267   -0.862215    3.146348
  H      3.889903   -1.069542    4.032491
  S     -3.304528   -0.072482    1.604144
  O     -3.916747    0.813723    0.639769
  O     -2.945136   -1.375484    1.043667
  O     -2.212900    0.530509    2.348788
  O     -4.418805   -0.367805    2.736351
  H     -5.226361   -0.652274    2.294403
  S      1.401634    1.731348   -0.865400
  O      0.701229    0.875009    0.081859
  O      2.043444    0.942401   -1.939290
  O      0.576078    2.790072   -1.407812
  O      2.565526    2.431596   -0.059097
  H      2.998589    1.734978    0.493404
  S     -1.289738   -1.130848   -1.826948
  O     -0.403429   -1.623578   -0.769439
  O     -1.545944    0.309956   -1.717093
  O     -0.835922   -1.481679   -3.158454
  O     -2.674864   -1.859099   -1.612206
  H     -2.940208   -1.707744   -0.671253
  N      0.092208    1.013643   -3.716842
  H      0.951504    0.999889   -3.121523
  H     -0.569951    1.602043   -3.221693
  H      0.283037    1.355772   -4.644696
  H     -0.288587    0.051926   -3.717448
  N     -1.649579    2.183428    0.214519
  H     -1.621616    1.369067   -0.425644
  H     -2.590800    2.553526    0.206895
  H     -1.443586    1.827387    1.146327
  H     -0.944394    2.843046   -0.098540
  N      2.291963   -1.572744   -0.886065
  H      2.512853   -1.809401    0.098770
  H      1.261353   -1.581842   -0.973702
  H      2.596601   -0.613686   -1.062232
  H      2.717201   -2.218173   -1.531359
  N     -0.222138   -1.139057    1.874517
  H     -0.371031   -0.680128    2.765577
  H      0.108214   -0.431827    1.215638
  H      0.499946   -1.848171    1.953942
  H     -1.103650   -1.513384    1.517719

 Total Charge           Charge          ....    0
 Multiplicity           Mult            ....    1
 Number of Electrons    NEL             ....  240
 Basis Dimension        Dim             ....  608

ORBITAL ENERGIES
----------------

  NO   OCC          E(Eh)            E(eV)
   0   2.0000     -88.271771     -2401.9970
   1   2.0000     -88.266838     -2401.8628
   2   2.0000     -88.264726     -2401.8053
   3   2.0000     -88.263504     -2401.7721
   4   2.0000     -18.783299      -511.1196
   5   2.0000     -18.782942      -511.1098
   6   2.0000     -18.774889      -510.8907
   7   2.0000     -18.770065      -510.7594
   8   2.0000     -18.746970      -510.1310
   9   2.0000     -18.740033      -509.9422
  10   2.0000     -18.739559      -509.9293
  11   2.0000     -18.738777      -509.9080
  12   2.0000     -18.737628      -509.8768
  13   2.0000     -18.737376      -509.8699
  14   2.0000     -18.734397      -509.7889
  15   2.0000     -18.732207      -509.7293
  16   2.0000     -18.731507      -509.7102
  17   2.0000     -18.731418      -509.7078
  18   2.0000     -18.724602      -509.5223
  19   2.0000     -18.724487      -509.5192
  20   2.0000     -14.083425      -383.2295
  21   2.0000     -14.068004      -382.8098
  22   2.0000     -14.063567      -382.6891
  23   2.0000     -14.062248      -382.6532
  24   2.0000      -7.932324      -215.8495
  25   2.0000      -7.927228      -215.7108
  26   2.0000      -7.925754      -215.6707
  27   2.0000      -7.924641      -215.6404
  28   2.0000      -5.962435      -162.2461
  29   2.0000      -5.960142      -162.1837
  30   2.0000      -5.960046      -162.1811
  31   2.0000      -5.957303      -162.1065
  32   2.0000      -5.956460      -162.0835
  33   2.0000      -5.955377      -162.0540
  34   2.0000      -5.955175      -162.0486
  35   2.0000      -5.954898      -162.0410
  36   2.0000      -5.953381      -161.9997
  37   2.0000      -5.952891      -161.9864
  38   2.0000      -5.952181      -161.9671
  39   2.0000      -5.951820      -161.9573
  40   2.0000      -1.092373       -29.7250
  41   2.0000      -1.086788       -29.5730
  42   2.0000      -1.085945       -29.5501
  43   2.0000      -1.084550       -29.5121
  44   2.0000      -0.959703       -26.1149
  45   2.0000      -0.958024       -26.0692
  46   2.0000      -0.956209       -26.0198
  47   2.0000      -0.951978       -25.9046
  48   2.0000      -0.937268       -25.5044
  49   2.0000      -0.933156       -25.3925
  50   2.0000      -0.930960       -25.3327
  51   2.0000      -0.929371       -25.2895
  52   2.0000      -0.927943       -25.2506
  53   2.0000      -0.926261       -25.2048
  54   2.0000      -0.925018       -25.1710
  55   2.0000      -0.924189       -25.1484
  56   2.0000      -0.909349       -24.7446
  57   2.0000      -0.896639       -24.3988
  58   2.0000      -0.892397       -24.2833
  59   2.0000      -0.891610       -24.2619
  60   2.0000      -0.596488       -16.2313
  61   2.0000      -0.592492       -16.1225
  62   2.0000      -0.585131       -15.9222
  63   2.0000      -0.581881       -15.8338
  64   2.0000      -0.540094       -14.6967
  65   2.0000      -0.525727       -14.3058
  66   2.0000      -0.524341       -14.2680
  67   2.0000      -0.520987       -14.1768
  68   2.0000      -0.520392       -14.1606
  69   2.0000      -0.515008       -14.0141
  70   2.0000      -0.512438       -13.9442
  71   2.0000      -0.511664       -13.9231
  72   2.0000      -0.509888       -13.8747
  73   2.0000      -0.508879       -13.8473
  74   2.0000      -0.505078       -13.7439
  75   2.0000      -0.503994       -13.7144
  76   2.0000      -0.483934       -13.1685
  77   2.0000      -0.481560       -13.1039
  78   2.0000      -0.477606       -12.9963
  79   2.0000      -0.468864       -12.7584
  80   2.0000      -0.444245       -12.0885
  81   2.0000      -0.442148       -12.0315
  82   2.0000      -0.437709       -11.9107
  83   2.0000      -0.436015       -11.8646
  84   2.0000      -0.435933       -11.8623
  85   2.0000      -0.432979       -11.7820
  86   2.0000      -0.430533       -11.7154
  87   2.0000      -0.425897       -11.5892
  88   2.0000      -0.397241       -10.8095
  89   2.0000      -0.389379       -10.5956
  90   2.0000      -0.380396       -10.3511
  91   2.0000      -0.377138       -10.2624
  92   2.0000      -0.334689        -9.1074
  93   2.0000      -0.330293        -8.9877
  94   2.0000      -0.328934        -8.9507
  95   2.0000      -0.326423        -8.8824
  96   2.0000      -0.325043        -8.8449
  97   2.0000      -0.321783        -8.7562
  98   2.0000      -0.320309        -8.7161
  99   2.0000      -0.317773        -8.6470
 100   2.0000      -0.315662        -8.5896
 101   2.0000      -0.312079        -8.4921
 102   2.0000      -0.311212        -8.4685
 103   2.0000      -0.308943        -8.4068
 104   2.0000      -0.306844        -8.3496
 105   2.0000      -0.305732        -8.3194
 106   2.0000      -0.305221        -8.3055
 107   2.0000      -0.300557        -8.1786
 108   2.0000      -0.271837        -7.3971
 109   2.0000      -0.269783        -7.3412
 110   2.0000      -0.266745        -7.2585
 111   2.0000      -0.265841        -7.2339
 112   2.0000      -0.253897        -6.9089
 113   2.0000      -0.250298        -6.8110
 114   2.0000      -0.248552        -6.7635
 115   2.0000      -0.246456        -6.7064
 116   2.0000      -0.244981        -6.6663
 117   2.0000      -0.238553        -6.4914
 118   2.0000      -0.237625        -6.4661
 119   2.0000      -0.236059        -6.4235
 120   0.0000      -0.018086        -0.4921
 121   0.0000      -0.001111        -0.0302
 122   0.0000       0.006276         0.1708
 123   0.0000       0.014658         0.3989
 124   0.0000       0.024618         0.6699

MULLIKEN ATOMIC CHARGES
-----------------------
   0 S :    1.226414
   1 O :   -0.543895
   2 O :   -0.688852
   3 O :   -0.615082
   4 O :   -0.624848
   5 H :    0.456915
   6 S :    1.176877
   7 O :   -0.538391
   8 O :   -0.645492
   9 O :   -0.637912
  10 O :   -0.622634
  11 H :    0.456517
  12 S :    1.173175
  13 O :   -0.555601
  14 O :   -0.704039
  15 O :   -0.594035
  16 O :   -0.588712
  17 H :    0.445430
  18 S :    1.157433
  19 O :   -0.618430
  20 O :   -0.635621
  21 O :   -0.599631
  22 O :   -0.583832
  23 H :    0.436643
  24 N :   -0.795156
  25 H :    0.396951
  26 H :    0.396200
  27 H :    0.376028
  28 H :    0.397491
  29 N :   -0.847316
  30 H :    0.465447
  31 H :    0.397029
  32 H :    0.410566
  33 H :    0.399374
  34 N :   -0.790875
  35 H :    0.388534
  36 H :    0.446091
  37 H :    0.384203
  38 H :    0.369670
  39 N :   -0.812134
  40 H :    0.404889
  41 H :    0.472165
  42 H :    0.399702
  43 H :    0.408744
Sum of atomic charges:   -0.0000000

LOEWDIN ATOMIC CHARGES
----------------------
   0 S :    1.871151
   1 O :   -0.765105
   2 O :   -0.876871
   3 O :   -0.787411
   4 O :   -0.680677
   5 H :    0.368142
   6 S :    1.866391
   7 O :   -0.775652
   8 O :   -0.828779
   9 O :   -0.836677
  10 O :   -0.682741
  11 H :    0.367720
  12 S :    1.886945
  13 O :   -0.862246
  14 O :   -0.885637
  15 O :   -0.792705
  16 O :   -0.688485
  17 H :    0.382952
  18 S :    1.888833
  19 O :   -0.864119
  20 O :   -0.880801
  21 O :   -0.784137
  22 O :   -0.690911
  23 H :    0.380040
  24 N :   -0.419002
  25 H :    0.345666
  26 H :    0.329078
  27 H :    0.294385
  28 H :    0.340950
  29 N :   -0.388372
  30 H :    0.350280
  31 H :    0.314674
  32 H :    0.334197
  33 H :    0.319162
  34 N :   -0.415494
  35 H :    0.339735
  36 H :    0.341216
  37 H :    0.333391
  38 H :    0.295315
  39 N :   -0.359795
  40 H :    0.325457
  41 H :    0.339264
  42 H :    0.320130
  43 H :    0.330547

  Mayer bond orders larger than 0.100000
B(  0-S ,  1-O ) :   1.6696 B(  0-S ,  2-O ) :   1.3798 B(  0-S ,  3-O ) :   1.5397
B(  0-S ,  4-O ) :   1.0568 B(  2-O , 35-H ) :   0.1936 B(  3-O , 17-H ) :   0.1223
B(  4-O ,  5-H ) :   0.7287 B(  6-S ,  7-O ) :   1.6482 B(  6-S ,  8-O ) :   1.3866
B(  6-S ,  9-O ) :   1.5424 B(  6-S , 10-O ) :   1.0818 B(  8-O , 23-H ) :   0.1306
B(  8-O , 43-H ) :   0.1108 B( 10-O , 11-H ) :   0.7317 B( 12-S , 13-O ) :   1.5265
B( 12-S , 14-O ) :   1.3201 B( 12-S , 15-O ) :   1.6605 B( 12-S , 16-O ) :   1.1209
B( 14-O , 25-H ) :   0.2186 B( 14-O , 37-H ) :   0.1135 B( 16-O , 17-H ) :   0.6441
B( 18-S , 19-O ) :   1.4587 B( 18-S , 20-O ) :   1.4361 B( 18-S , 21-O ) :   1.5860
B( 18-S , 22-O ) :   1.1702 B( 19-O , 36-H ) :   0.1148 B( 21-O , 28-H ) :   0.1724
B( 22-O , 23-H ) :   0.6459 B( 24-N , 25-H ) :   0.6508 B( 24-N , 26-H ) :   0.7997
B( 24-N , 27-H ) :   0.8308 B( 24-N , 28-H ) :   0.6862 B( 29-N , 30-H ) :   0.7184
B( 29-N , 31-H ) :   0.8057 B( 29-N , 32-H ) :   0.7484 B( 29-N , 33-H ) :   0.7608
B( 34-N , 35-H ) :   0.6699 B( 34-N , 36-H ) :   0.6919 B( 34-N , 37-H ) :   0.7376
B( 34-N , 38-H ) :   0.8427 B( 39-N , 40-H ) :   0.7906 B( 39-N , 41-H ) :   0.8104
B( 39-N , 42-H ) :   0.7589 B( 39-N , 43-H ) :   0.7191

Dispersion correction           -0.133689851
FINAL SINGLE POINT ENERGY     -3026.637165909674
Dispersion correction            ... done

DIPOLE MOMENT
-------------
                                X             Y             Z
Electronic contribution:     -1.20259      -0.39338       5.23024
Nuclear contribution   :      1.32705       0.41939      -6.71565
                        -----------------------------------------
Total Dipole Moment    :      0.12446       0.02600      -1.48541
                        -----------------------------------------
Magnitude (a.u.)       :      1.49084
Magnitude (Debye)      :      3.78941

Rotational constants in cm-1:     0.006854     0.004768     0.003816
Rotational constants in MHz :   205.489143   142.950472   114.413226

                             ****ORCA TERMINATED NORMALLY****
TOTAL RUN TIME: 0 days 0 hours 4 minutes 32 seconds 744 msec
