                         Program Version 5.0.3 -  RELEASE  -
|  1> ! B97-3c ENGRAD
|  2> %pal nprocs 1
|  3>     end
|  4> %Maxcore 3000.00
|  5> * xyzfile 0 1 4sa4am-44_10_239.xyz
|  6>
|  7>
|  8>                          ****END OF INPUT****

CARTESIAN COORDINATES (ANGSTROEM)
---------------------------------
  S     -0.225997   -3.868773   -0.865644
  O     -1.662277   -3.651115   -0.831762
  O      0.296938   -4.001763   -2.219367
  O      0.543257   -2.938744   -0.061397
  O      0.018387   -5.292273   -0.138615
  H     -0.525598   -5.949753   -0.586072
  S      0.069150    2.204444    2.557500
  O      0.838281    1.282835    3.360137
  O     -0.397772    1.567579    1.309412
  O     -1.023778    2.861204    3.243608
  O      1.035102    3.385088    2.079660
  H      1.707722    3.013292    1.475216
  S     -2.032091   -0.270695   -0.530037
  O     -0.656483   -0.236603   -1.030700
  O     -2.077709   -0.677974    0.886638
  O     -2.733111    0.982434   -0.758859
  O     -2.806235   -1.364293   -1.341909
  H     -2.395278   -2.262762   -1.157100
  S      2.662478    1.188873   -0.939351
  O      1.956364    1.087307   -2.216309
  O      2.266998    2.371661   -0.194572
  O      2.630982   -0.046639   -0.185960
  O      4.223639    1.381019   -1.296273
  H      4.393048    2.308933   -1.491288
  N      0.630690   -0.924702    1.613533
  H      0.771656   -0.321274    2.424971
  H      0.890523   -1.887657    1.781559
  H     -0.351692   -0.887153    1.321665
  H      1.191418   -0.559837    0.842504
  N     -3.029129    1.540920    1.977818
  H     -3.879181    1.382945    2.495530
  H     -2.590261    0.631827    1.704975
  H     -3.211799    2.005254    1.095521
  H     -2.338625    2.086765    2.525251
  N      1.461372   -1.592893   -2.200605
  H      1.816343   -1.081091   -2.995550
  H      0.641160   -1.105336   -1.822131
  H      1.165723   -2.559153   -2.415984
  H      2.151495   -1.601464   -1.456024
  N     -0.292552    2.381224   -1.212669
  H     -1.235275    2.136327   -1.499786
  H     -0.201001    2.085493   -0.217458
  H      0.394534    1.831191   -1.738733
  H     -0.091418    3.365331   -1.291345

 Total Charge           Charge          ....    0
 Multiplicity           Mult            ....    1
 Number of Electrons    NEL             ....  240
 Basis Dimension        Dim             ....  608

ORBITAL ENERGIES
----------------

  NO   OCC          E(Eh)            E(eV)
   0   2.0000     -88.278688     -2402.1852
   1   2.0000     -88.272173     -2402.0080
   2   2.0000     -88.263788     -2401.7798
   3   2.0000     -88.256823     -2401.5902
   4   2.0000     -18.796387      -511.4757
   5   2.0000     -18.777885      -510.9722
   6   2.0000     -18.774612      -510.8832
   7   2.0000     -18.769234      -510.7368
   8   2.0000     -18.748708      -510.1783
   9   2.0000     -18.745809      -510.0994
  10   2.0000     -18.745018      -510.0779
  11   2.0000     -18.742364      -510.0056
  12   2.0000     -18.739894      -509.9384
  13   2.0000     -18.736981      -509.8592
  14   2.0000     -18.735147      -509.8093
  15   2.0000     -18.731681      -509.7149
  16   2.0000     -18.729234      -509.6484
  17   2.0000     -18.727582      -509.6034
  18   2.0000     -18.723512      -509.4927
  19   2.0000     -18.723434      -509.4905
  20   2.0000     -14.080532      -383.1508
  21   2.0000     -14.071882      -382.9154
  22   2.0000     -14.065115      -382.7312
  23   2.0000     -14.053907      -382.4263
  24   2.0000      -7.939528      -216.0455
  25   2.0000      -7.932454      -215.8530
  26   2.0000      -7.924755      -215.6435
  27   2.0000      -7.917739      -215.4526
  28   2.0000      -5.970226      -162.4581
  29   2.0000      -5.967047      -162.3716
  30   2.0000      -5.966855      -162.3664
  31   2.0000      -5.962307      -162.2426
  32   2.0000      -5.960433      -162.1916
  33   2.0000      -5.960343      -162.1892
  34   2.0000      -5.955335      -162.0529
  35   2.0000      -5.952559      -161.9774
  36   2.0000      -5.951910      -161.9597
  37   2.0000      -5.948539      -161.8680
  38   2.0000      -5.945280      -161.7793
  39   2.0000      -5.944919      -161.7695
  40   2.0000      -1.099261       -29.9124
  41   2.0000      -1.090633       -29.6776
  42   2.0000      -1.085657       -29.5422
  43   2.0000      -1.077662       -29.3247
  44   2.0000      -0.970935       -26.4205
  45   2.0000      -0.954350       -25.9692
  46   2.0000      -0.953147       -25.9364
  47   2.0000      -0.950125       -25.8542
  48   2.0000      -0.944904       -25.7121
  49   2.0000      -0.937180       -25.5020
  50   2.0000      -0.934368       -25.4255
  51   2.0000      -0.933425       -25.3998
  52   2.0000      -0.930649       -25.3242
  53   2.0000      -0.924590       -25.1594
  54   2.0000      -0.921556       -25.0768
  55   2.0000      -0.917432       -24.9646
  56   2.0000      -0.906537       -24.6681
  57   2.0000      -0.899784       -24.4844
  58   2.0000      -0.893803       -24.3216
  59   2.0000      -0.883814       -24.0498
  60   2.0000      -0.605082       -16.4651
  61   2.0000      -0.593532       -16.1508
  62   2.0000      -0.587193       -15.9783
  63   2.0000      -0.577549       -15.7159
  64   2.0000      -0.534320       -14.5396
  65   2.0000      -0.530530       -14.4364
  66   2.0000      -0.524667       -14.2769
  67   2.0000      -0.522729       -14.2242
  68   2.0000      -0.518742       -14.1157
  69   2.0000      -0.516662       -14.0591
  70   2.0000      -0.515390       -14.0245
  71   2.0000      -0.513920       -13.9845
  72   2.0000      -0.509905       -13.8752
  73   2.0000      -0.506870       -13.7926
  74   2.0000      -0.499779       -13.5997
  75   2.0000      -0.497296       -13.5321
  76   2.0000      -0.492290       -13.3959
  77   2.0000      -0.476459       -12.9651
  78   2.0000      -0.474130       -12.9017
  79   2.0000      -0.470630       -12.8065
  80   2.0000      -0.449405       -12.2289
  81   2.0000      -0.443980       -12.0813
  82   2.0000      -0.441558       -12.0154
  83   2.0000      -0.437488       -11.9047
  84   2.0000      -0.434583       -11.8256
  85   2.0000      -0.432391       -11.7659
  86   2.0000      -0.427790       -11.6408
  87   2.0000      -0.424062       -11.5393
  88   2.0000      -0.401717       -10.9313
  89   2.0000      -0.382648       -10.4124
  90   2.0000      -0.381486       -10.3808
  91   2.0000      -0.378865       -10.3094
  92   2.0000      -0.340517        -9.2659
  93   2.0000      -0.332810        -9.0562
  94   2.0000      -0.331787        -9.0284
  95   2.0000      -0.328286        -8.9331
  96   2.0000      -0.326123        -8.8743
  97   2.0000      -0.323461        -8.8018
  98   2.0000      -0.321900        -8.7593
  99   2.0000      -0.318224        -8.6593
 100   2.0000      -0.317170        -8.6306
 101   2.0000      -0.314172        -8.5490
 102   2.0000      -0.312006        -8.4901
 103   2.0000      -0.309811        -8.4304
 104   2.0000      -0.305017        -8.2999
 105   2.0000      -0.301817        -8.2128
 106   2.0000      -0.299512        -8.1501
 107   2.0000      -0.297450        -8.0940
 108   2.0000      -0.281408        -7.6575
 109   2.0000      -0.272674        -7.4198
 110   2.0000      -0.269780        -7.3411
 111   2.0000      -0.264186        -7.1889
 112   2.0000      -0.260973        -7.1014
 113   2.0000      -0.251902        -6.8546
 114   2.0000      -0.250560        -6.8181
 115   2.0000      -0.247371        -6.7313
 116   2.0000      -0.245901        -6.6913
 117   2.0000      -0.242963        -6.6114
 118   2.0000      -0.236810        -6.4439
 119   2.0000      -0.225870        -6.1462
 120   0.0000      -0.019480        -0.5301
 121   0.0000      -0.005782        -0.1573
 122   0.0000       0.011273         0.3068
 123   0.0000       0.012224         0.3326
 124   0.0000       0.026711         0.7268

MULLIKEN ATOMIC CHARGES
-----------------------
   0 S :    1.127136
   1 O :   -0.552045
   2 O :   -0.582294
   3 O :   -0.592025
   4 O :   -0.628124
   5 H :    0.454405
   6 S :    1.143804
   7 O :   -0.545757
   8 O :   -0.670852
   9 O :   -0.576245
  10 O :   -0.612691
  11 H :    0.456676
  12 S :    1.364787
  13 O :   -0.650859
  14 O :   -0.734515
  15 O :   -0.664120
  16 O :   -0.563841
  17 H :    0.425094
  18 S :    1.165646
  19 O :   -0.605878
  20 O :   -0.601444
  21 O :   -0.625747
  22 O :   -0.617437
  23 H :    0.456973
  24 N :   -0.821141
  25 H :    0.402123
  26 H :    0.399517
  27 H :    0.409789
  28 H :    0.444439
  29 N :   -0.790805
  30 H :    0.378564
  31 H :    0.404642
  32 H :    0.387728
  33 H :    0.390337
  34 N :   -0.836012
  35 H :    0.387144
  36 H :    0.453344
  37 H :    0.409195
  38 H :    0.403945
  39 N :   -0.821649
  40 H :    0.396653
  41 H :    0.448108
  42 H :    0.405712
  43 H :    0.377720
Sum of atomic charges:   -0.0000000

LOEWDIN ATOMIC CHARGES
----------------------
   0 S :    1.869043
   1 O :   -0.760049
   2 O :   -0.807815
   3 O :   -0.835406
   4 O :   -0.684521
   5 H :    0.366826
   6 S :    1.879733
   7 O :   -0.764698
   8 O :   -0.948398
   9 O :   -0.779151
  10 O :   -0.703193
  11 H :    0.375812
  12 S :    1.899850
  13 O :   -0.878735
  14 O :   -0.873838
  15 O :   -0.814105
  16 O :   -0.701464
  17 H :    0.388566
  18 S :    1.876104
  19 O :   -0.845140
  20 O :   -0.798150
  21 O :   -0.817375
  22 O :   -0.678531
  23 H :    0.369504
  24 N :   -0.377451
  25 H :    0.324579
  26 H :    0.315248
  27 H :    0.337585
  28 H :    0.334142
  29 N :   -0.416557
  30 H :    0.296157
  31 H :    0.352215
  32 H :    0.322522
  33 H :    0.341503
  34 N :   -0.390866
  35 H :    0.307512
  36 H :    0.341875
  37 H :    0.336415
  38 H :    0.330745
  39 N :   -0.397859
  40 H :    0.320369
  41 H :    0.353410
  42 H :    0.336710
  43 H :    0.296877

  Mayer bond orders larger than 0.100000
B(  0-S ,  1-O ) :   1.5336 B(  0-S ,  2-O ) :   1.5692 B(  0-S ,  3-O ) :   1.5639
B(  0-S ,  4-O ) :   1.0742 B(  1-O , 17-H ) :   0.1854 B(  2-O , 37-H ) :   0.1735
B(  4-O ,  5-H ) :   0.7329 B(  6-S ,  7-O ) :   1.6441 B(  6-S ,  8-O ) :   1.3447
B(  6-S ,  9-O ) :   1.5996 B(  6-S , 10-O ) :   1.0699 B(  7-O , 25-H ) :   0.1242
B(  9-O , 33-H ) :   0.1954 B( 10-O , 11-H ) :   0.6739 B( 12-S , 13-O ) :   1.3857
B( 12-S , 14-O ) :   1.2466 B( 12-S , 15-O ) :   1.5959 B( 12-S , 16-O ) :   1.1990
B( 14-O , 27-H ) :   0.1446 B( 14-O , 31-H ) :   0.2014 B( 16-O , 17-H ) :   0.5999
B( 18-S , 19-O ) :   1.4908 B( 18-S , 20-O ) :   1.5556 B( 18-S , 21-O ) :   1.5422
B( 18-S , 22-O ) :   1.0740 B( 19-O , 42-H ) :   0.1501 B( 22-O , 23-H ) :   0.7293
B( 24-N , 25-H ) :   0.7247 B( 24-N , 26-H ) :   0.8048 B( 24-N , 27-H ) :   0.7133
B( 24-N , 28-H ) :   0.7597 B( 29-N , 30-H ) :   0.8349 B( 29-N , 31-H ) :   0.6655
B( 29-N , 32-H ) :   0.8081 B( 29-N , 33-H ) :   0.6685 B( 34-N , 35-H ) :   0.8126
B( 34-N , 36-H ) :   0.7126 B( 34-N , 37-H ) :   0.6691 B( 34-N , 38-H ) :   0.7810
B( 39-N , 40-H ) :   0.7700 B( 39-N , 41-H ) :   0.7168 B( 39-N , 42-H ) :   0.7015
B( 39-N , 43-H ) :   0.8271

Dispersion correction           -0.131360959
FINAL SINGLE POINT ENERGY     -3026.640930237318
Dispersion correction            ... done

DIPOLE MOMENT
-------------
                                X             Y             Z
Electronic contribution:      2.41534      -3.35450       0.75024
Nuclear contribution   :     -3.03308       4.67700      -1.68910
                        -----------------------------------------
Total Dipole Moment    :     -0.61774       1.32251      -0.93886
                        -----------------------------------------
Magnitude (a.u.)       :      1.73554
Magnitude (Debye)      :      4.41138

Rotational constants in cm-1:     0.007109     0.004596     0.003605
Rotational constants in MHz :   213.128062   137.774220   108.068255

                             ****ORCA TERMINATED NORMALLY****
TOTAL RUN TIME: 0 days 0 hours 4 minutes 26 seconds 689 msec
