                         Program Version 5.0.3 -  RELEASE  -
|  1> ! B97-3c ENGRAD
|  2> %pal nprocs 1
|  3>     end
|  4> %Maxcore 3000.00
|  5> * xyzfile 0 1 4sa4am-44_10_0.xyz
|  6>
|  7>
|  8>                          ****END OF INPUT****

CARTESIAN COORDINATES (ANGSTROEM)
---------------------------------
  S      3.193277   -2.951475   -0.346792
  O      3.693531   -1.588741   -0.344346
  O      2.859910   -3.462403    0.967182
  O      2.122821   -3.151213   -1.320561
  O      4.384962   -3.878623   -0.916035
  H      5.102857   -3.876488   -0.273087
  S     -3.193254    2.951443    0.346723
  O     -2.860062    3.462222   -0.967459
  O     -3.693525    1.588642    0.344527
  O     -2.122640    3.151384    1.320380
  O     -4.384900    3.878610    0.916044
  H     -5.102906    3.876333    0.273158
  S      1.745723    0.832833    0.791614
  O      0.994030   -0.403994    1.003269
  O      1.799758    1.205432   -0.629288
  O      1.269834    1.917309    1.627207
  O      3.231439    0.543301    1.245205
  H      3.537542   -0.258269    0.754152
  S     -1.745772   -0.832805   -0.791563
  O     -1.799838   -1.205430    0.629332
  O     -0.994070    0.404025   -1.003175
  O     -1.269871   -1.917262   -1.627169
  O     -3.231480   -0.543269   -1.245175
  H     -3.537597    0.258280   -0.754096
  N      1.268306   -0.827470   -2.304764
  H      1.619491   -0.560551   -3.210306
  H      0.265284   -1.006448   -2.330085
  H      1.731931   -1.693699   -1.974288
  H      1.451730   -0.075796   -1.612218
  N     -0.183565    2.991812   -0.569278
  H      0.641113    3.151891   -1.130551
  H     -0.475292    2.011442   -0.690372
  H      0.043504    3.114094    0.414307
  H     -0.980951    3.574320   -0.828745
  N      0.183637   -2.991827    0.569282
  H     -0.640161   -3.152355    1.131085
  H      0.981027   -3.574153    0.827505
  H     -0.044406   -3.113809   -0.413707
  H      0.475389   -2.011483    0.690479
  N     -1.268322    0.827515    2.304753
  H     -1.619566    0.560665    3.210318
  H     -0.265272    1.006424    2.330095
  H     -1.451763    0.075807    1.612249
  H     -1.731883    1.693779    1.974194

 Total Charge           Charge          ....    0
 Multiplicity           Mult            ....    1
 Number of Electrons    NEL             ....  240
 Basis Dimension        Dim             ....  608

ORBITAL ENERGIES
----------------

  NO   OCC          E(Eh)            E(eV)
   0   2.0000     -88.269173     -2401.9263
   1   2.0000     -88.269166     -2401.9261
   2   2.0000     -88.268173     -2401.8991
   3   2.0000     -88.268153     -2401.8985
   4   2.0000     -18.787099      -511.2230
   5   2.0000     -18.787078      -511.2224
   6   2.0000     -18.770066      -510.7595
   7   2.0000     -18.770060      -510.7593
   8   2.0000     -18.742669      -510.0140
   9   2.0000     -18.742652      -510.0135
  10   2.0000     -18.741255      -509.9755
  11   2.0000     -18.741253      -509.9754
  12   2.0000     -18.736222      -509.8385
  13   2.0000     -18.736205      -509.8381
  14   2.0000     -18.734994      -509.8051
  15   2.0000     -18.734986      -509.8049
  16   2.0000     -18.732406      -509.7347
  17   2.0000     -18.732398      -509.7345
  18   2.0000     -18.732087      -509.7260
  19   2.0000     -18.732071      -509.7256
  20   2.0000     -14.079085      -383.1114
  21   2.0000     -14.079041      -383.1102
  22   2.0000     -14.061962      -382.6454
  23   2.0000     -14.061954      -382.6452
  24   2.0000      -7.929540      -215.7737
  25   2.0000      -7.929533      -215.7736
  26   2.0000      -7.929222      -215.7651
  27   2.0000      -7.929208      -215.7647
  28   2.0000      -5.959890      -162.1768
  29   2.0000      -5.959875      -162.1764
  30   2.0000      -5.959595      -162.1688
  31   2.0000      -5.959589      -162.1687
  32   2.0000      -5.957627      -162.1153
  33   2.0000      -5.957620      -162.1151
  34   2.0000      -5.957126      -162.1016
  35   2.0000      -5.957119      -162.1015
  36   2.0000      -5.956994      -162.0980
  37   2.0000      -5.956979      -162.0976
  38   2.0000      -5.956268      -162.0783
  39   2.0000      -5.956253      -162.0779
  40   2.0000      -1.090692       -29.6792
  41   2.0000      -1.090220       -29.6664
  42   2.0000      -1.088287       -29.6138
  43   2.0000      -1.087137       -29.5825
  44   2.0000      -0.962340       -26.1866
  45   2.0000      -0.962138       -26.1811
  46   2.0000      -0.953695       -25.9514
  47   2.0000      -0.952229       -25.9115
  48   2.0000      -0.934757       -25.4360
  49   2.0000      -0.933506       -25.4020
  50   2.0000      -0.932873       -25.3848
  51   2.0000      -0.932360       -25.3708
  52   2.0000      -0.931257       -25.3408
  53   2.0000      -0.930117       -25.3098
  54   2.0000      -0.927703       -25.2441
  55   2.0000      -0.924814       -25.1655
  56   2.0000      -0.907700       -24.6998
  57   2.0000      -0.904725       -24.6188
  58   2.0000      -0.893278       -24.3073
  59   2.0000      -0.891014       -24.2457
  60   2.0000      -0.597153       -16.2494
  61   2.0000      -0.596813       -16.2401
  62   2.0000      -0.586232       -15.9522
  63   2.0000      -0.582566       -15.8524
  64   2.0000      -0.531841       -14.4721
  65   2.0000      -0.528653       -14.3854
  66   2.0000      -0.525902       -14.3105
  67   2.0000      -0.524186       -14.2638
  68   2.0000      -0.522035       -14.2053
  69   2.0000      -0.521419       -14.1885
  70   2.0000      -0.517340       -14.0775
  71   2.0000      -0.516265       -14.0483
  72   2.0000      -0.512828       -13.9548
  73   2.0000      -0.507595       -13.8124
  74   2.0000      -0.504556       -13.7297
  75   2.0000      -0.503571       -13.7029
  76   2.0000      -0.485989       -13.2244
  77   2.0000      -0.483353       -13.1527
  78   2.0000      -0.476233       -12.9590
  79   2.0000      -0.472795       -12.8654
  80   2.0000      -0.447657       -12.1814
  81   2.0000      -0.444745       -12.1021
  82   2.0000      -0.442070       -12.0293
  83   2.0000      -0.440936       -11.9985
  84   2.0000      -0.434118       -11.8129
  85   2.0000      -0.433986       -11.8094
  86   2.0000      -0.431903       -11.7527
  87   2.0000      -0.427374       -11.6294
  88   2.0000      -0.391631       -10.6568
  89   2.0000      -0.391520       -10.6538
  90   2.0000      -0.382292       -10.4027
  91   2.0000      -0.379626       -10.3302
  92   2.0000      -0.334055        -9.0901
  93   2.0000      -0.333189        -9.0665
  94   2.0000      -0.328302        -8.9336
  95   2.0000      -0.327558        -8.9133
  96   2.0000      -0.325543        -8.8585
  97   2.0000      -0.322827        -8.7846
  98   2.0000      -0.321185        -8.7399
  99   2.0000      -0.320046        -8.7089
 100   2.0000      -0.316185        -8.6038
 101   2.0000      -0.315651        -8.5893
 102   2.0000      -0.313075        -8.5192
 103   2.0000      -0.311891        -8.4870
 104   2.0000      -0.310765        -8.4563
 105   2.0000      -0.309147        -8.4123
 106   2.0000      -0.308775        -8.4022
 107   2.0000      -0.300814        -8.1856
 108   2.0000      -0.274478        -7.4689
 109   2.0000      -0.272619        -7.4183
 110   2.0000      -0.271466        -7.3870
 111   2.0000      -0.262953        -7.1553
 112   2.0000      -0.252354        -6.8669
 113   2.0000      -0.252308        -6.8657
 114   2.0000      -0.249763        -6.7964
 115   2.0000      -0.244011        -6.6399
 116   2.0000      -0.243903        -6.6369
 117   2.0000      -0.243409        -6.6235
 118   2.0000      -0.240316        -6.5393
 119   2.0000      -0.240308        -6.5391
 120   0.0000      -0.014510        -0.3948
 121   0.0000       0.002029         0.0552
 122   0.0000       0.008878         0.2416
 123   0.0000       0.013461         0.3663
 124   0.0000       0.019815         0.5392

MULLIKEN ATOMIC CHARGES
-----------------------
   0 S :    1.193371
   1 O :   -0.572135
   2 O :   -0.570450
   3 O :   -0.678468
   4 O :   -0.620827
   5 H :    0.457827
   6 S :    1.193369
   7 O :   -0.570401
   8 O :   -0.572166
   9 O :   -0.678468
  10 O :   -0.620786
  11 H :    0.457815
  12 S :    1.241533
  13 O :   -0.635118
  14 O :   -0.656741
  15 O :   -0.645202
  16 O :   -0.583015
  17 H :    0.444035
  18 S :    1.241495
  19 O :   -0.656678
  20 O :   -0.635089
  21 O :   -0.645256
  22 O :   -0.583010
  23 H :    0.444033
  24 N :   -0.779278
  25 H :    0.366771
  26 H :    0.395108
  27 H :    0.397673
  28 H :    0.400816
  29 N :   -0.818681
  30 H :    0.389072
  31 H :    0.453386
  32 H :    0.407230
  33 H :    0.413056
  34 N :   -0.818986
  35 H :    0.389138
  36 H :    0.413191
  37 H :    0.407284
  38 H :    0.453460
  39 N :   -0.779245
  40 H :    0.366767
  41 H :    0.395105
  42 H :    0.400824
  43 H :    0.397636
Sum of atomic charges:   -0.0000000

LOEWDIN ATOMIC CHARGES
----------------------
   0 S :    1.868928
   1 O :   -0.776073
   2 O :   -0.786526
   3 O :   -0.853508
   4 O :   -0.680272
   5 H :    0.368623
   6 S :    1.869021
   7 O :   -0.786541
   8 O :   -0.776103
   9 O :   -0.853574
  10 O :   -0.680280
  11 H :    0.368632
  12 S :    1.888107
  13 O :   -0.866266
  14 O :   -0.869996
  15 O :   -0.810256
  16 O :   -0.692187
  17 H :    0.380859
  18 S :    1.888101
  19 O :   -0.869938
  20 O :   -0.866267
  21 O :   -0.810262
  22 O :   -0.692191
  23 H :    0.380857
  24 N :   -0.418118
  25 H :    0.296717
  26 H :    0.328358
  27 H :    0.339022
  28 H :    0.342979
  29 N :   -0.380010
  30 H :    0.311017
  31 H :    0.346238
  32 H :    0.333525
  33 H :    0.328866
  34 N :   -0.379912
  35 H :    0.310963
  36 H :    0.328809
  37 H :    0.333427
  38 H :    0.346272
  39 N :   -0.418119
  40 H :    0.296719
  41 H :    0.328361
  42 H :    0.342978
  43 H :    0.339020

  Mayer bond orders larger than 0.100000
B(  0-S ,  1-O ) :   1.5221 B(  0-S ,  2-O ) :   1.6198 B(  0-S ,  3-O ) :   1.4433
B(  0-S ,  4-O ) :   1.0788 B(  1-O , 17-H ) :   0.1216 B(  3-O , 27-H ) :   0.1616
B(  4-O ,  5-H ) :   0.7306 B(  6-S ,  7-O ) :   1.6197 B(  6-S ,  8-O ) :   1.5220
B(  6-S ,  9-O ) :   1.4432 B(  6-S , 10-O ) :   1.0788 B(  8-O , 23-H ) :   0.1216
B(  9-O , 43-H ) :   0.1616 B( 10-O , 11-H ) :   0.7306 B( 12-S , 13-O ) :   1.4638
B( 12-S , 14-O ) :   1.4024 B( 12-S , 15-O ) :   1.5541 B( 12-S , 16-O ) :   1.1528
B( 14-O , 28-H ) :   0.1638 B( 16-O , 17-H ) :   0.6451 B( 18-S , 19-O ) :   1.4025
B( 18-S , 20-O ) :   1.4638 B( 18-S , 21-O ) :   1.5540 B( 18-S , 22-O ) :   1.1528
B( 19-O , 42-H ) :   0.1638 B( 22-O , 23-H ) :   0.6451 B( 24-N , 25-H ) :   0.8472
B( 24-N , 26-H ) :   0.7516 B( 24-N , 27-H ) :   0.6849 B( 24-N , 28-H ) :   0.6860
B( 29-N , 30-H ) :   0.8105 B( 29-N , 31-H ) :   0.7320 B( 29-N , 32-H ) :   0.7617
B( 29-N , 33-H ) :   0.7304 B( 34-N , 35-H ) :   0.8106 B( 34-N , 36-H ) :   0.7302
B( 34-N , 37-H ) :   0.7616 B( 34-N , 38-H ) :   0.7319 B( 39-N , 40-H ) :   0.8472
B( 39-N , 41-H ) :   0.7516 B( 39-N , 42-H ) :   0.6860 B( 39-N , 43-H ) :   0.6850

Dispersion correction           -0.132021771
FINAL SINGLE POINT ENERGY     -3026.641624130376
Dispersion correction            ... done

DIPOLE MOMENT
-------------
                                X             Y             Z
Electronic contribution:     -0.00028      -0.00003       0.00011
Nuclear contribution   :      0.00013      -0.00002       0.00014
                        -----------------------------------------
Total Dipole Moment    :     -0.00015      -0.00005       0.00026
                        -----------------------------------------
Magnitude (a.u.)       :      0.00030
Magnitude (Debye)      :      0.00077

Rotational constants in cm-1:     0.011040     0.003469     0.003056
Rotational constants in MHz :   330.978599   103.996323    91.630298

                             ****ORCA TERMINATED NORMALLY****
TOTAL RUN TIME: 0 days 0 hours 4 minutes 33 seconds 682 msec
