                         Program Version 5.0.3 -  RELEASE  -
|  1> ! B97-3c ENGRAD
|  2> %pal nprocs 1
|  3>     end
|  4> %Maxcore 3000.00
|  5> * xyzfile 0 1 4sa4am-44_10_243.xyz
|  6>
|  7>
|  8>                          ****END OF INPUT****

CARTESIAN COORDINATES (ANGSTROEM)
---------------------------------
  S      0.837392   -2.107915   -2.345442
  O      1.995838   -2.594767   -1.615022
  O     -0.412733   -2.536967   -1.721216
  O      0.864157   -0.690890   -2.642478
  O      0.884855   -2.802091   -3.797213
  H      1.040753   -3.746966   -3.691055
  S     -1.022495    3.437460   -0.499414
  O     -0.982313    2.501540   -1.647943
  O      0.019551    3.055814    0.464291
  O     -1.041054    4.809248   -0.865471
  O     -2.422389    3.158824    0.234145
  H     -2.414761    2.291131    0.678056
  S      2.268207   -0.224923    0.717624
  O      2.568557   -1.396296    1.513041
  O      0.844616   -0.182668    0.338186
  O      2.713314    1.036800    1.266799
  O      3.089051   -0.361404   -0.654700
  H      2.862835   -1.236767   -1.054659
  S     -2.175494   -0.709043    1.849832
  O     -2.149408    0.648335    1.316898
  O     -2.442536   -1.701690    0.827793
  O     -1.011632   -1.013298    2.664898
  O     -3.393098   -0.771278    2.899268
  H     -4.229691   -0.688420    2.428201
  N      1.616856    1.844613   -1.540890
  H      1.712420    0.869354   -1.827466
  H      2.234088    2.437962   -2.073673
  H      0.624742    2.130582   -1.671112
  H      1.828534    1.910662   -0.547522
  N     -1.506114   -0.111286   -1.297876
  H     -1.325882   -0.512035   -2.210060
  H     -1.706335    0.891353   -1.376001
  H     -2.236940   -0.623654   -0.812871
  H     -0.650155   -0.202296   -0.745900
  N      0.308252   -2.843879    0.937664
  H      1.283813   -2.524627    0.979237
  H     -0.038920   -2.711600   -0.022785
  H      0.228205   -3.811020    1.210383
  H     -0.228905   -2.241395    1.566987
  N      0.310659    1.465009    2.577293
  H     -0.120937    0.535852    2.585236
  H      1.317804    1.364392    2.440623
  H     -0.032884    1.981909    1.747163
  H      0.090179    1.976335    3.417150

 Total Charge           Charge          ....    0
 Multiplicity           Mult            ....    1
 Number of Electrons    NEL             ....  240
 Basis Dimension        Dim             ....  608

ORBITAL ENERGIES
----------------

  NO   OCC          E(Eh)            E(eV)
   0   2.0000     -88.288214     -2402.4444
   1   2.0000     -88.279881     -2402.2177
   2   2.0000     -88.271123     -2401.9794
   3   2.0000     -88.254814     -2401.5356
   4   2.0000     -18.804958      -511.7089
   5   2.0000     -18.798793      -511.5412
   6   2.0000     -18.777661      -510.9661
   7   2.0000     -18.767547      -510.6909
   8   2.0000     -18.764277      -510.6019
   9   2.0000     -18.753743      -510.3153
  10   2.0000     -18.751521      -510.2548
  11   2.0000     -18.749505      -510.2000
  12   2.0000     -18.748434      -510.1708
  13   2.0000     -18.747763      -510.1526
  14   2.0000     -18.746116      -510.1078
  15   2.0000     -18.738924      -509.9120
  16   2.0000     -18.738427      -509.8985
  17   2.0000     -18.733753      -509.7713
  18   2.0000     -18.725825      -509.5556
  19   2.0000     -18.715411      -509.2722
  20   2.0000     -14.076855      -383.0507
  21   2.0000     -14.073864      -382.9693
  22   2.0000     -14.072255      -382.9255
  23   2.0000     -14.071451      -382.9037
  24   2.0000      -7.949147      -216.3073
  25   2.0000      -7.941006      -216.0858
  26   2.0000      -7.932259      -215.8478
  27   2.0000      -7.915777      -215.3993
  28   2.0000      -5.979719      -162.7164
  29   2.0000      -5.976958      -162.6413
  30   2.0000      -5.976319      -162.6239
  31   2.0000      -5.971705      -162.4984
  32   2.0000      -5.968516      -162.4116
  33   2.0000      -5.968280      -162.4051
  34   2.0000      -5.962670      -162.2525
  35   2.0000      -5.960225      -162.1860
  36   2.0000      -5.959382      -162.1630
  37   2.0000      -5.946585      -161.8148
  38   2.0000      -5.943646      -161.7348
  39   2.0000      -5.942613      -161.7067
  40   2.0000      -1.110482       -30.2177
  41   2.0000      -1.102710       -30.0063
  42   2.0000      -1.093257       -29.7490
  43   2.0000      -1.075598       -29.2685
  44   2.0000      -0.981165       -26.6989
  45   2.0000      -0.973941       -26.5023
  46   2.0000      -0.958240       -26.0750
  47   2.0000      -0.956580       -26.0299
  48   2.0000      -0.948990       -25.8233
  49   2.0000      -0.946221       -25.7480
  50   2.0000      -0.943219       -25.6663
  51   2.0000      -0.941499       -25.6195
  52   2.0000      -0.939786       -25.5729
  53   2.0000      -0.930030       -25.3074
  54   2.0000      -0.924576       -25.1590
  55   2.0000      -0.917926       -24.9780
  56   2.0000      -0.904574       -24.6147
  57   2.0000      -0.902871       -24.5684
  58   2.0000      -0.900975       -24.5168
  59   2.0000      -0.899189       -24.4682
  60   2.0000      -0.614941       -16.7334
  61   2.0000      -0.607853       -16.5405
  62   2.0000      -0.587454       -15.9854
  63   2.0000      -0.582722       -15.8567
  64   2.0000      -0.533019       -14.5042
  65   2.0000      -0.530346       -14.4314
  66   2.0000      -0.527158       -14.3447
  67   2.0000      -0.525444       -14.2980
  68   2.0000      -0.521891       -14.2014
  69   2.0000      -0.521034       -14.1780
  70   2.0000      -0.518519       -14.1096
  71   2.0000      -0.517636       -14.0856
  72   2.0000      -0.515660       -14.0318
  73   2.0000      -0.514022       -13.9872
  74   2.0000      -0.511193       -13.9103
  75   2.0000      -0.509176       -13.8554
  76   2.0000      -0.502962       -13.6863
  77   2.0000      -0.495627       -13.4867
  78   2.0000      -0.480400       -13.0724
  79   2.0000      -0.474596       -12.9144
  80   2.0000      -0.461556       -12.5596
  81   2.0000      -0.456209       -12.4141
  82   2.0000      -0.449700       -12.2370
  83   2.0000      -0.447650       -12.1812
  84   2.0000      -0.442618       -12.0443
  85   2.0000      -0.436069       -11.8660
  86   2.0000      -0.425355       -11.5745
  87   2.0000      -0.417249       -11.3539
  88   2.0000      -0.408987       -11.1291
  89   2.0000      -0.402842       -10.9619
  90   2.0000      -0.395907       -10.7732
  91   2.0000      -0.372091       -10.1251
  92   2.0000      -0.349981        -9.5235
  93   2.0000      -0.344714        -9.3801
  94   2.0000      -0.342431        -9.3180
  95   2.0000      -0.337184        -9.1752
  96   2.0000      -0.336341        -9.1523
  97   2.0000      -0.333456        -9.0738
  98   2.0000      -0.327354        -8.9078
  99   2.0000      -0.326685        -8.8895
 100   2.0000      -0.323782        -8.8106
 101   2.0000      -0.320733        -8.7276
 102   2.0000      -0.319234        -8.6868
 103   2.0000      -0.313883        -8.5412
 104   2.0000      -0.311739        -8.4829
 105   2.0000      -0.306665        -8.3448
 106   2.0000      -0.298533        -8.1235
 107   2.0000      -0.296043        -8.0557
 108   2.0000      -0.291869        -7.9422
 109   2.0000      -0.284797        -7.7497
 110   2.0000      -0.276281        -7.5180
 111   2.0000      -0.271882        -7.3983
 112   2.0000      -0.266258        -7.2452
 113   2.0000      -0.262885        -7.1535
 114   2.0000      -0.256559        -6.9813
 115   2.0000      -0.255565        -6.9543
 116   2.0000      -0.252954        -6.8832
 117   2.0000      -0.247985        -6.7480
 118   2.0000      -0.245796        -6.6884
 119   2.0000      -0.225850        -6.1457
 120   0.0000      -0.021279        -0.5790
 121   0.0000      -0.005748        -0.1564
 122   0.0000       0.003523         0.0959
 123   0.0000       0.008758         0.2383
 124   0.0000       0.011329         0.3083

MULLIKEN ATOMIC CHARGES
-----------------------
   0 S :    1.247287
   1 O :   -0.623066
   2 O :   -0.641732
   3 O :   -0.618636
   4 O :   -0.612338
   5 H :    0.460307
   6 S :    1.139922
   7 O :   -0.713349
   8 O :   -0.650603
   9 O :   -0.435805
  10 O :   -0.630695
  11 H :    0.444166
  12 S :    0.980900
  13 O :   -0.551872
  14 O :   -0.592290
  15 O :   -0.570883
  16 O :   -0.617100
  17 H :    0.429813
  18 S :    1.247453
  19 O :   -0.601754
  20 O :   -0.607470
  21 O :   -0.681091
  22 O :   -0.612035
  23 H :    0.462427
  24 N :   -0.776648
  25 H :    0.428257
  26 H :    0.381645
  27 H :    0.399048
  28 H :    0.401050
  29 N :   -0.795464
  30 H :    0.399393
  31 H :    0.417060
  32 H :    0.402448
  33 H :    0.480540
  34 N :   -0.774020
  35 H :    0.397732
  36 H :    0.391415
  37 H :    0.377978
  38 H :    0.391948
  39 N :   -0.818214
  40 H :    0.395033
  41 H :    0.406965
  42 H :    0.462068
  43 H :    0.380208
Sum of atomic charges:   -0.0000000

LOEWDIN ATOMIC CHARGES
----------------------
   0 S :    1.877524
   1 O :   -0.778756
   2 O :   -0.848423
   3 O :   -0.814729
   4 O :   -0.673160
   5 H :    0.369619
   6 S :    1.864751
   7 O :   -0.903981
   8 O :   -0.874451
   9 O :   -0.666275
  10 O :   -0.717306
  11 H :    0.369008
  12 S :    1.870833
  13 O :   -0.771325
  14 O :   -0.918798
  15 O :   -0.788676
  16 O :   -0.767004
  17 H :    0.378014
  18 S :    1.878039
  19 O :   -0.834458
  20 O :   -0.798622
  21 O :   -0.832505
  22 O :   -0.672580
  23 H :    0.370947
  24 N :   -0.385548
  25 H :    0.337652
  26 H :    0.302433
  27 H :    0.342276
  28 H :    0.328119
  29 N :   -0.366580
  30 H :    0.321827
  31 H :    0.332889
  32 H :    0.323620
  33 H :    0.336787
  34 N :   -0.398027
  35 H :    0.336708
  36 H :    0.335443
  37 H :    0.297719
  38 H :    0.330415
  39 N :   -0.403977
  40 H :    0.333005
  41 H :    0.330439
  42 H :    0.348871
  43 H :    0.298242

  Mayer bond orders larger than 0.100000
B(  0-S ,  1-O ) :   1.4944 B(  0-S ,  2-O ) :   1.4567 B(  0-S ,  3-O ) :   1.5670
B(  0-S ,  4-O ) :   1.0814 B(  1-O , 17-H ) :   0.1614 B(  2-O , 36-H ) :   0.1305
B(  4-O ,  5-H ) :   0.7251 B(  6-S ,  7-O ) :   1.3223 B(  6-S ,  8-O ) :   1.4795
B(  6-S ,  9-O ) :   1.9185 B(  6-S , 10-O ) :   1.0366 B(  7-O , 27-H ) :   0.1919
B(  7-O , 31-H ) :   0.1144 B( 10-O , 11-H ) :   0.6766 B( 12-S , 13-O ) :   1.6204
B( 12-S , 14-O ) :   1.4227 B( 12-S , 15-O ) :   1.5811 B( 12-S , 16-O ) :   1.0335
B( 13-O , 35-H ) :   0.1307 B( 15-O , 41-H ) :   0.1029 B( 16-O , 17-H ) :   0.6355
B( 18-S , 19-O ) :   1.4927 B( 18-S , 20-O ) :   1.6046 B( 18-S , 21-O ) :   1.3883
B( 18-S , 22-O ) :   1.0932 B( 21-O , 38-H ) :   0.1418 B( 21-O , 40-H ) :   0.1456
B( 22-O , 23-H ) :   0.7249 B( 24-N , 25-H ) :   0.7390 B( 24-N , 26-H ) :   0.8320
B( 24-N , 27-H ) :   0.6701 B( 24-N , 28-H ) :   0.7699 B( 29-N , 30-H ) :   0.7941
B( 29-N , 31-H ) :   0.7102 B( 29-N , 32-H ) :   0.7598 B( 29-N , 33-H ) :   0.8160
B( 34-N , 35-H ) :   0.7175 B( 34-N , 36-H ) :   0.7207 B( 34-N , 37-H ) :   0.8391
B( 34-N , 38-H ) :   0.7316 B( 39-N , 40-H ) :   0.7142 B( 39-N , 41-H ) :   0.7397
B( 39-N , 42-H ) :   0.7002 B( 39-N , 43-H ) :   0.8357

Dispersion correction           -0.136758071
FINAL SINGLE POINT ENERGY     -3026.641417075817
Dispersion correction            ... done

DIPOLE MOMENT
-------------
                                X             Y             Z
Electronic contribution:     -0.83539       0.99423      -1.33009
Nuclear contribution   :      0.48410      -3.19079       1.81378
                        -----------------------------------------
Total Dipole Moment    :     -0.35129      -2.19655       0.48368
                        -----------------------------------------
Magnitude (a.u.)       :      2.27644
Magnitude (Debye)      :      5.78626

Rotational constants in cm-1:     0.006622     0.004982     0.004282
Rotational constants in MHz :   198.518622   149.357659   128.363428

                             ****ORCA TERMINATED NORMALLY****
TOTAL RUN TIME: 0 days 0 hours 4 minutes 23 seconds 704 msec
