                         Program Version 5.0.3 -  RELEASE  -
|  1> ! B97-3c ENGRAD
|  2> %pal nprocs 1
|  3>     end
|  4> %Maxcore 3000.00
|  5> * xyzfile 0 1 4sa4am-44_10_183.xyz
|  6>
|  7>
|  8>                          ****END OF INPUT****

CARTESIAN COORDINATES (ANGSTROEM)
---------------------------------
  S     -1.763776    0.045783    0.998863
  O     -1.014744    1.155955    1.580964
  O     -1.137251   -0.426495   -0.247619
  O     -1.991509   -1.029841    1.940407
  O     -3.185247    0.597312    0.587442
  H     -3.051293    1.243494   -0.155324
  S     -1.480271    2.944780   -1.697154
  O     -2.579405    1.979994   -1.615082
  O     -1.074664    3.472354   -0.417882
  O     -0.379037    2.441651   -2.503333
  O     -2.045705    4.191548   -2.554336
  H     -2.578695    4.741903   -1.970030
  S      1.456112   -1.377428   -2.012510
  O      1.369561   -0.079437   -2.650317
  O      1.933405   -1.299940   -0.638432
  O      0.248962   -2.177705   -2.143490
  O      2.556062   -2.223701   -2.837085
  H      3.359059   -1.697058   -2.917669
  S      2.348002   -0.868687    2.626095
  O      1.240116   -1.850785    2.509474
  O      1.912875    0.441165    2.140038
  O      2.929501   -0.845103    3.930536
  O      3.479368   -1.378694    1.624044
  H      3.100592   -1.392029    0.723040
  N     -0.206243   -2.831565    0.525582
  H     -1.093259   -2.483338    0.880908
  H     -0.091864   -2.542787   -0.454469
  H      0.531421   -2.372093    1.096391
  H     -0.130095   -3.831983    0.619583
  N     -0.178252    0.036001    3.832784
  H     -0.430026    0.618650    3.006666
  H      0.103335   -0.870863    3.431625
  H      0.636192    0.426881    4.288489
  H     -0.974240   -0.063803    4.443051
  N     -1.344908    0.003264   -2.965097
  H     -0.802916    0.887912   -2.977420
  H     -0.832774   -0.728916   -3.440240
  H     -1.425815   -0.242866   -1.971474
  H     -2.262605    0.175931   -3.347282
  N      0.988474    1.457100   -0.256531
  H      1.596985    1.211748    0.528026
  H      1.495628    1.594388   -1.122337
  H      0.348358    0.672315   -0.384918
  H      0.420585    2.274985   -0.033978

 Total Charge           Charge          ....    0
 Multiplicity           Mult            ....    1
 Number of Electrons    NEL             ....  240
 Basis Dimension        Dim             ....  608

ORBITAL ENERGIES
----------------

  NO   OCC          E(Eh)            E(eV)
   0   2.0000     -88.274751     -2402.0781
   1   2.0000     -88.273699     -2402.0495
   2   2.0000     -88.265768     -2401.8337
   3   2.0000     -88.252543     -2401.4738
   4   2.0000     -18.792691      -511.3751
   5   2.0000     -18.785258      -511.1729
   6   2.0000     -18.776218      -510.9269
   7   2.0000     -18.765461      -510.6342
   8   2.0000     -18.749397      -510.1970
   9   2.0000     -18.747045      -510.1330
  10   2.0000     -18.742666      -510.0139
  11   2.0000     -18.742423      -510.0073
  12   2.0000     -18.738579      -509.9027
  13   2.0000     -18.738342      -509.8962
  14   2.0000     -18.737914      -509.8846
  15   2.0000     -18.737754      -509.8802
  16   2.0000     -18.730762      -509.6900
  17   2.0000     -18.729878      -509.6659
  18   2.0000     -18.718852      -509.3659
  19   2.0000     -18.716144      -509.2922
  20   2.0000     -14.079576      -383.1247
  21   2.0000     -14.076619      -383.0443
  22   2.0000     -14.070499      -382.8777
  23   2.0000     -14.056494      -382.4967
  24   2.0000      -7.935740      -215.9425
  25   2.0000      -7.934500      -215.9087
  26   2.0000      -7.927030      -215.7054
  27   2.0000      -7.913632      -215.3409
  28   2.0000      -5.966370      -162.3532
  29   2.0000      -5.964629      -162.3058
  30   2.0000      -5.963424      -162.2730
  31   2.0000      -5.962949      -162.2601
  32   2.0000      -5.962410      -162.2454
  33   2.0000      -5.962072      -162.2362
  34   2.0000      -5.957786      -162.1196
  35   2.0000      -5.954599      -162.0329
  36   2.0000      -5.954140      -162.0204
  37   2.0000      -5.944178      -161.7493
  38   2.0000      -5.941440      -161.6748
  39   2.0000      -5.940766      -161.6565
  40   2.0000      -1.096976       -29.8502
  41   2.0000      -1.095354       -29.8061
  42   2.0000      -1.088321       -29.6147
  43   2.0000      -1.074013       -29.2254
  44   2.0000      -0.967934       -26.3388
  45   2.0000      -0.961197       -26.1555
  46   2.0000      -0.957615       -26.0580
  47   2.0000      -0.945610       -25.7314
  48   2.0000      -0.941281       -25.6136
  49   2.0000      -0.939272       -25.5589
  50   2.0000      -0.936129       -25.4734
  51   2.0000      -0.934997       -25.4426
  52   2.0000      -0.931917       -25.3588
  53   2.0000      -0.928335       -25.2613
  54   2.0000      -0.920579       -25.0502
  55   2.0000      -0.912616       -24.8336
  56   2.0000      -0.905747       -24.6466
  57   2.0000      -0.903797       -24.5936
  58   2.0000      -0.897931       -24.4339
  59   2.0000      -0.886045       -24.1105
  60   2.0000      -0.600706       -16.3460
  61   2.0000      -0.597169       -16.2498
  62   2.0000      -0.585534       -15.9332
  63   2.0000      -0.576697       -15.6927
  64   2.0000      -0.536217       -14.5912
  65   2.0000      -0.532329       -14.4854
  66   2.0000      -0.528071       -14.3695
  67   2.0000      -0.525101       -14.2887
  68   2.0000      -0.521025       -14.1778
  69   2.0000      -0.517076       -14.0704
  70   2.0000      -0.515077       -14.0160
  71   2.0000      -0.513183       -13.9644
  72   2.0000      -0.509481       -13.8637
  73   2.0000      -0.507049       -13.7975
  74   2.0000      -0.501209       -13.6386
  75   2.0000      -0.496871       -13.5205
  76   2.0000      -0.495548       -13.4845
  77   2.0000      -0.484399       -13.1812
  78   2.0000      -0.479290       -13.0421
  79   2.0000      -0.467455       -12.7201
  80   2.0000      -0.449635       -12.2352
  81   2.0000      -0.446780       -12.1575
  82   2.0000      -0.441259       -12.0073
  83   2.0000      -0.438836       -11.9413
  84   2.0000      -0.437444       -11.9034
  85   2.0000      -0.433290       -11.7904
  86   2.0000      -0.420760       -11.4495
  87   2.0000      -0.416511       -11.3338
  88   2.0000      -0.398396       -10.8409
  89   2.0000      -0.394567       -10.7367
  90   2.0000      -0.384344       -10.4585
  91   2.0000      -0.369999       -10.0682
  92   2.0000      -0.338870        -9.2211
  93   2.0000      -0.335238        -9.1223
  94   2.0000      -0.330998        -9.0069
  95   2.0000      -0.329233        -8.9589
  96   2.0000      -0.326640        -8.8883
  97   2.0000      -0.324445        -8.8286
  98   2.0000      -0.323209        -8.7950
  99   2.0000      -0.318324        -8.6620
 100   2.0000      -0.316653        -8.6166
 101   2.0000      -0.313950        -8.5430
 102   2.0000      -0.312104        -8.4928
 103   2.0000      -0.311343        -8.4721
 104   2.0000      -0.307486        -8.3671
 105   2.0000      -0.303461        -8.2576
 106   2.0000      -0.296417        -8.0659
 107   2.0000      -0.294953        -8.0261
 108   2.0000      -0.279114        -7.5951
 109   2.0000      -0.276833        -7.5330
 110   2.0000      -0.269638        -7.3372
 111   2.0000      -0.261099        -7.1049
 112   2.0000      -0.256449        -6.9783
 113   2.0000      -0.255233        -6.9452
 114   2.0000      -0.253530        -6.8989
 115   2.0000      -0.249021        -6.7762
 116   2.0000      -0.248425        -6.7600
 117   2.0000      -0.241416        -6.5693
 118   2.0000      -0.239451        -6.5158
 119   2.0000      -0.221425        -6.0253
 120   0.0000      -0.015899        -0.4326
 121   0.0000      -0.001098        -0.0299
 122   0.0000       0.004870         0.1325
 123   0.0000       0.009613         0.2616
 124   0.0000       0.017180         0.4675

MULLIKEN ATOMIC CHARGES
-----------------------
   0 S :    1.259009
   1 O :   -0.617763
   2 O :   -0.739606
   3 O :   -0.608404
   4 O :   -0.573072
   5 H :    0.436280
   6 S :    1.177914
   7 O :   -0.609831
   8 O :   -0.549909
   9 O :   -0.636937
  10 O :   -0.618071
  11 H :    0.457173
  12 S :    1.214533
  13 O :   -0.582278
  14 O :   -0.608865
  15 O :   -0.656091
  16 O :   -0.617413
  17 H :    0.459518
  18 S :    1.073542
  19 O :   -0.706686
  20 O :   -0.604294
  21 O :   -0.435440
  22 O :   -0.620671
  23 H :    0.442617
  24 N :   -0.788341
  25 H :    0.389557
  26 H :    0.386533
  27 H :    0.444844
  28 H :    0.375855
  29 N :   -0.829242
  30 H :    0.413398
  31 H :    0.422901
  32 H :    0.409029
  33 H :    0.380116
  34 N :   -0.816130
  35 H :    0.416111
  36 H :    0.397947
  37 H :    0.426106
  38 H :    0.385920
  39 N :   -0.788510
  40 H :    0.428562
  41 H :    0.395135
  42 H :    0.408875
  43 H :    0.406079
Sum of atomic charges:    0.0000000

LOEWDIN ATOMIC CHARGES
----------------------
   0 S :    1.895194
   1 O :   -0.839948
   2 O :   -0.934139
   3 O :   -0.786359
   4 O :   -0.696950
   5 H :    0.382072
   6 S :    1.871306
   7 O :   -0.821534
   8 O :   -0.763988
   9 O :   -0.827968
  10 O :   -0.680819
  11 H :    0.368482
  12 S :    1.876475
  13 O :   -0.805079
  14 O :   -0.830440
  15 O :   -0.829500
  16 O :   -0.680356
  17 H :    0.368418
  18 S :    1.856624
  19 O :   -0.913307
  20 O :   -0.850826
  21 O :   -0.699149
  22 O :   -0.701719
  23 H :    0.371465
  24 N :   -0.398128
  25 H :    0.325617
  26 H :    0.337337
  27 H :    0.351147
  28 H :    0.295599
  29 N :   -0.411672
  30 H :    0.351753
  31 H :    0.342738
  32 H :    0.315316
  33 H :    0.299738
  34 N :   -0.388659
  35 H :    0.350761
  36 H :    0.316370
  37 H :    0.343108
  38 H :    0.304376
  39 N :   -0.372411
  40 H :    0.332732
  41 H :    0.315760
  42 H :    0.331511
  43 H :    0.329050

  Mayer bond orders larger than 0.100000
B(  0-S ,  1-O ) :   1.4000 B(  0-S ,  2-O ) :   1.3374 B(  0-S ,  3-O ) :   1.6310
B(  0-S ,  4-O ) :   1.1788 B(  1-O , 30-H ) :   0.2099 B(  2-O , 37-H ) :   0.1033
B(  4-O ,  5-H ) :   0.6315 B(  5-H ,  7-O ) :   0.1474 B(  6-S ,  7-O ) :   1.4319
B(  6-S ,  8-O ) :   1.6360 B(  6-S ,  9-O ) :   1.4882 B(  6-S , 10-O ) :   1.0733
B(  9-O , 35-H ) :   0.1502 B( 10-O , 11-H ) :   0.7300 B( 12-S , 13-O ) :   1.6024
B( 12-S , 14-O ) :   1.4692 B( 12-S , 15-O ) :   1.4692 B( 12-S , 16-O ) :   1.0737
B( 15-O , 26-H ) :   0.1744 B( 16-O , 17-H ) :   0.7266 B( 18-S , 19-O ) :   1.3426
B( 18-S , 20-O ) :   1.4554 B( 18-S , 21-O ) :   1.8999 B( 18-S , 22-O ) :   1.0720
B( 19-O , 31-H ) :   0.1349 B( 22-O , 23-H ) :   0.6694 B( 24-N , 25-H ) :   0.7669
B( 24-N , 26-H ) :   0.6938 B( 24-N , 27-H ) :   0.6932 B( 24-N , 28-H ) :   0.8386
B( 29-N , 30-H ) :   0.6530 B( 29-N , 31-H ) :   0.6955 B( 29-N , 32-H ) :   0.8064
B( 29-N , 33-H ) :   0.8228 B( 34-N , 35-H ) :   0.6795 B( 34-N , 36-H ) :   0.7937
B( 34-N , 37-H ) :   0.7063 B( 34-N , 38-H ) :   0.8214 B( 39-N , 40-H ) :   0.7167
B( 39-N , 41-H ) :   0.7897 B( 39-N , 42-H ) :   0.8418 B( 39-N , 43-H ) :   0.7448

Dispersion correction           -0.135209037
FINAL SINGLE POINT ENERGY     -3026.634112269925
Dispersion correction            ... done

DIPOLE MOMENT
-------------
                                X             Y             Z
Electronic contribution:      2.11551       3.44669      -1.14492
Nuclear contribution   :     -3.65088      -4.27933       0.51542
                        -----------------------------------------
Total Dipole Moment    :     -1.53536      -0.83265      -0.62950
                        -----------------------------------------
Magnitude (a.u.)       :      1.85659
Magnitude (Debye)      :      4.71907

Rotational constants in cm-1:     0.007405     0.004690     0.003773
Rotational constants in MHz :   221.994562   140.614221   113.123547

                             ****ORCA TERMINATED NORMALLY****
TOTAL RUN TIME: 0 days 0 hours 4 minutes 12 seconds 938 msec
