                         Program Version 5.0.3 -  RELEASE  -
|  1> ! B97-3c ENGRAD
|  2> %pal nprocs 1
|  3>     end
|  4> %Maxcore 3000.00
|  5> * xyzfile 0 1 4sa4am-44_10_162.xyz
|  6>
|  7>
|  8>                          ****END OF INPUT****

CARTESIAN COORDINATES (ANGSTROEM)
---------------------------------
  S      3.513019   -2.201932   -1.035676
  O      3.803116   -0.841340   -0.616701
  O      3.060332   -3.065771    0.030076
  O      2.642898   -2.238102   -2.213240
  O      4.895461   -2.823452   -1.588406
  H      5.494541   -2.940648   -0.842888
  S     -3.682871    1.644630    1.412135
  O     -3.514211    1.789333   -0.023666
  O     -3.907607    0.285725    1.847843
  O     -2.618341    2.318665    2.158813
  O     -4.997172    2.489721    1.813854
  H     -5.768673    2.041199    1.450479
  S      1.550734    0.640342    1.254553
  O      0.993119   -0.712879    1.179354
  O      1.547248    1.321547   -0.044320
  O      0.926905    1.436814    2.288357
  O      3.072410    0.472653    1.664674
  H      3.498920   -0.050272    0.946017
  S     -1.446263   -0.297557   -1.486105
  O     -1.467971   -0.845175   -0.126900
  O     -0.829951    1.032014   -1.545498
  O     -0.858624   -1.212776   -2.439695
  O     -2.960447   -0.105288   -1.912832
  H     -3.350564    0.537061   -1.274846
  N      1.684939    0.242096   -2.494617
  H      2.161218    0.895956   -3.094737
  H      0.724016    0.093056   -2.789976
  H      2.172574   -0.670304   -2.475984
  H      1.661351    0.609263   -1.521668
  N     -0.724612    2.908883    0.366148
  H     -0.727008    3.809905   -0.084041
  H     -0.817972    2.157975   -0.347587
  H      0.140939    2.744999    0.872891
  H     -1.517721    2.818980    1.024559
  N      0.473688   -2.750578   -0.547816
  H      0.695733   -1.933334    0.047757
  H      0.820634   -3.580341   -0.086582
  H     -0.524803   -2.762088   -0.717437
  H      0.980300   -2.628571   -1.426304
  N     -1.353531   -0.136336    2.497905
  H     -2.107943   -0.643515    2.939771
  H     -0.434224   -0.384637    2.843024
  H     -1.385688   -0.330525    1.481462
  H     -1.517896    0.864604    2.617849

 Total Charge           Charge          ....    0
 Multiplicity           Mult            ....    1
 Number of Electrons    NEL             ....  240
 Basis Dimension        Dim             ....  608

ORBITAL ENERGIES
----------------

  NO   OCC          E(Eh)            E(eV)
   0   2.0000     -88.267840     -2401.8900
   1   2.0000     -88.267832     -2401.8898
   2   2.0000     -88.264169     -2401.7901
   3   2.0000     -88.264165     -2401.7900
   4   2.0000     -18.786940      -511.2186
   5   2.0000     -18.786931      -511.2184
   6   2.0000     -18.766914      -510.6737
   7   2.0000     -18.766906      -510.6735
   8   2.0000     -18.747989      -510.1587
   9   2.0000     -18.747985      -510.1586
  10   2.0000     -18.736225      -509.8386
  11   2.0000     -18.736197      -509.8378
  12   2.0000     -18.734569      -509.7935
  13   2.0000     -18.734567      -509.7935
  14   2.0000     -18.730588      -509.6852
  15   2.0000     -18.730573      -509.6848
  16   2.0000     -18.729885      -509.6661
  17   2.0000     -18.729880      -509.6659
  18   2.0000     -18.727639      -509.6050
  19   2.0000     -18.727638      -509.6049
  20   2.0000     -14.076513      -383.0414
  21   2.0000     -14.076480      -383.0405
  22   2.0000     -14.064824      -382.7233
  23   2.0000     -14.064813      -382.7230
  24   2.0000      -7.929003      -215.7591
  25   2.0000      -7.928993      -215.7589
  26   2.0000      -7.924717      -215.6425
  27   2.0000      -7.924713      -215.6424
  28   2.0000      -5.959704      -162.1718
  29   2.0000      -5.959696      -162.1716
  30   2.0000      -5.956713      -162.0904
  31   2.0000      -5.956703      -162.0901
  32   2.0000      -5.956035      -162.0720
  33   2.0000      -5.956025      -162.0717
  34   2.0000      -5.954807      -162.0385
  35   2.0000      -5.954804      -162.0384
  36   2.0000      -5.952610      -161.9788
  37   2.0000      -5.952607      -161.9787
  38   2.0000      -5.952394      -161.9729
  39   2.0000      -5.952390      -161.9728
  40   2.0000      -1.090557       -29.6756
  41   2.0000      -1.090449       -29.6726
  42   2.0000      -1.084480       -29.5102
  43   2.0000      -1.083193       -29.4752
  44   2.0000      -0.962997       -26.2045
  45   2.0000      -0.962875       -26.2011
  46   2.0000      -0.950091       -25.8533
  47   2.0000      -0.948670       -25.8146
  48   2.0000      -0.935328       -25.4516
  49   2.0000      -0.934764       -25.4362
  50   2.0000      -0.930931       -25.3319
  51   2.0000      -0.928600       -25.2685
  52   2.0000      -0.927602       -25.2413
  53   2.0000      -0.926453       -25.2101
  54   2.0000      -0.925873       -25.1943
  55   2.0000      -0.921307       -25.0701
  56   2.0000      -0.904562       -24.6144
  57   2.0000      -0.902792       -24.5662
  58   2.0000      -0.895302       -24.3624
  59   2.0000      -0.892832       -24.2952
  60   2.0000      -0.596979       -16.2446
  61   2.0000      -0.596784       -16.2393
  62   2.0000      -0.582898       -15.8615
  63   2.0000      -0.578009       -15.7284
  64   2.0000      -0.526441       -14.3252
  65   2.0000      -0.525942       -14.3116
  66   2.0000      -0.524422       -14.2703
  67   2.0000      -0.522655       -14.2222
  68   2.0000      -0.521634       -14.1944
  69   2.0000      -0.517952       -14.0942
  70   2.0000      -0.517470       -14.0811
  71   2.0000      -0.514770       -14.0076
  72   2.0000      -0.513791       -13.9810
  73   2.0000      -0.510160       -13.8822
  74   2.0000      -0.507703       -13.8153
  75   2.0000      -0.504384       -13.7250
  76   2.0000      -0.486328       -13.2337
  77   2.0000      -0.484506       -13.1841
  78   2.0000      -0.472097       -12.8464
  79   2.0000      -0.468444       -12.7470
  80   2.0000      -0.447056       -12.1650
  81   2.0000      -0.444537       -12.0965
  82   2.0000      -0.440057       -11.9746
  83   2.0000      -0.437983       -11.9181
  84   2.0000      -0.430801       -11.7227
  85   2.0000      -0.430162       -11.7053
  86   2.0000      -0.425894       -11.5892
  87   2.0000      -0.423687       -11.5291
  88   2.0000      -0.391873       -10.6634
  89   2.0000      -0.391771       -10.6606
  90   2.0000      -0.380806       -10.3622
  91   2.0000      -0.377454       -10.2710
  92   2.0000      -0.332364        -9.0441
  93   2.0000      -0.332059        -9.0358
  94   2.0000      -0.326121        -8.8742
  95   2.0000      -0.325932        -8.8691
  96   2.0000      -0.323300        -8.7974
  97   2.0000      -0.322072        -8.7640
  98   2.0000      -0.320652        -8.7254
  99   2.0000      -0.318995        -8.6803
 100   2.0000      -0.316874        -8.6226
 101   2.0000      -0.312602        -8.5063
 102   2.0000      -0.312332        -8.4990
 103   2.0000      -0.308646        -8.3987
 104   2.0000      -0.307795        -8.3755
 105   2.0000      -0.307191        -8.3591
 106   2.0000      -0.306153        -8.3309
 107   2.0000      -0.297945        -8.1075
 108   2.0000      -0.275021        -7.4837
 109   2.0000      -0.273918        -7.4537
 110   2.0000      -0.267374        -7.2756
 111   2.0000      -0.258900        -7.0450
 112   2.0000      -0.252672        -6.8755
 113   2.0000      -0.251412        -6.8413
 114   2.0000      -0.248377        -6.7587
 115   2.0000      -0.242221        -6.5912
 116   2.0000      -0.241417        -6.5693
 117   2.0000      -0.239531        -6.5180
 118   2.0000      -0.238537        -6.4909
 119   2.0000      -0.232684        -6.3316
 120   0.0000      -0.013815        -0.3759
 121   0.0000       0.000524         0.0143
 122   0.0000       0.011057         0.3009
 123   0.0000       0.015502         0.4218
 124   0.0000       0.017472         0.4754

MULLIKEN ATOMIC CHARGES
-----------------------
   0 S :    1.173653
   1 O :   -0.575292
   2 O :   -0.522799
   3 O :   -0.706140
   4 O :   -0.619857
   5 H :    0.458961
   6 S :    1.173392
   7 O :   -0.575110
   8 O :   -0.522788
   9 O :   -0.706198
  10 O :   -0.619885
  11 H :    0.458984
  12 S :    1.211761
  13 O :   -0.639867
  14 O :   -0.650564
  15 O :   -0.616110
  16 O :   -0.590081
  17 H :    0.441619
  18 S :    1.212463
  19 O :   -0.640094
  20 O :   -0.650831
  21 O :   -0.616116
  22 O :   -0.590192
  23 H :    0.441566
  24 N :   -0.792447
  25 H :    0.368949
  26 H :    0.400470
  27 H :    0.393904
  28 H :    0.427894
  29 N :   -0.792282
  30 H :    0.368940
  31 H :    0.427722
  32 H :    0.400429
  33 H :    0.393904
  34 N :   -0.823625
  35 H :    0.452344
  36 H :    0.395041
  37 H :    0.401731
  38 H :    0.410422
  39 N :   -0.823443
  40 H :    0.394995
  41 H :    0.401774
  42 H :    0.452478
  43 H :    0.410326
Sum of atomic charges:   -0.0000000

LOEWDIN ATOMIC CHARGES
----------------------
   0 S :    1.867022
   1 O :   -0.785014
   2 O :   -0.771373
   3 O :   -0.866183
   4 O :   -0.680336
   5 H :    0.368880
   6 S :    1.867012
   7 O :   -0.784997
   8 O :   -0.771376
   9 O :   -0.866190
  10 O :   -0.680348
  11 H :    0.368878
  12 S :    1.885877
  13 O :   -0.874134
  14 O :   -0.868396
  15 O :   -0.796603
  16 O :   -0.693458
  17 H :    0.377902
  18 S :    1.885887
  19 O :   -0.874127
  20 O :   -0.868420
  21 O :   -0.796605
  22 O :   -0.693458
  23 H :    0.377914
  24 N :   -0.412292
  25 H :    0.298673
  26 H :    0.326543
  27 H :    0.337559
  28 H :    0.348409
  29 N :   -0.412294
  30 H :    0.298665
  31 H :    0.348404
  32 H :    0.326542
  33 H :    0.337562
  34 N :   -0.381981
  35 H :    0.349908
  36 H :    0.313917
  37 H :    0.319445
  38 H :    0.335647
  39 N :   -0.381984
  40 H :    0.313906
  41 H :    0.319466
  42 H :    0.349913
  43 H :    0.335637

  Mayer bond orders larger than 0.100000
B(  0-S ,  1-O ) :   1.5174 B(  0-S ,  2-O ) :   1.6806 B(  0-S ,  3-O ) :   1.3940
B(  0-S ,  4-O ) :   1.0739 B(  1-O , 17-H ) :   0.1135 B(  3-O , 27-H ) :   0.1727
B(  4-O ,  5-H ) :   0.7308 B(  6-S ,  7-O ) :   1.5172 B(  6-S ,  8-O ) :   1.6808
B(  6-S ,  9-O ) :   1.3942 B(  6-S , 10-O ) :   1.0739 B(  7-O , 23-H ) :   0.1135
B(  9-O , 33-H ) :   0.1727 B( 10-O , 11-H ) :   0.7307 B( 12-S , 13-O ) :   1.4155
B( 12-S , 14-O ) :   1.4226 B( 12-S , 15-O ) :   1.5870 B( 12-S , 16-O ) :   1.1563
B( 14-O , 28-H ) :   0.1130 B( 16-O , 17-H ) :   0.6558 B( 18-S , 19-O ) :   1.4154
B( 18-S , 20-O ) :   1.4223 B( 18-S , 21-O ) :   1.5872 B( 18-S , 22-O ) :   1.1562
B( 20-O , 31-H ) :   0.1132 B( 22-O , 23-H ) :   0.6559 B( 24-N , 25-H ) :   0.8437
B( 24-N , 26-H ) :   0.7685 B( 24-N , 27-H ) :   0.6828 B( 24-N , 28-H ) :   0.7055
B( 29-N , 30-H ) :   0.8437 B( 29-N , 31-H ) :   0.7055 B( 29-N , 32-H ) :   0.7685
B( 29-N , 33-H ) :   0.6828 B( 34-N , 35-H ) :   0.7285 B( 34-N , 36-H ) :   0.8118
B( 34-N , 37-H ) :   0.7822 B( 34-N , 38-H ) :   0.7338 B( 39-N , 40-H ) :   0.8118
B( 39-N , 41-H ) :   0.7822 B( 39-N , 42-H ) :   0.7285 B( 39-N , 43-H ) :   0.7338

Dispersion correction           -0.132150678
FINAL SINGLE POINT ENERGY     -3026.634286210717
Dispersion correction            ... done

DIPOLE MOMENT
-------------
                                X             Y             Z
Electronic contribution:     -0.31242      -1.02594       0.69292
Nuclear contribution   :      0.35613       1.16845      -0.78929
                        -----------------------------------------
Total Dipole Moment    :      0.04371       0.14250      -0.09637
                        -----------------------------------------
Magnitude (a.u.)       :      0.17750
Magnitude (Debye)      :      0.45116

Rotational constants in cm-1:     0.010830     0.003555     0.003157
Rotational constants in MHz :   324.661378   106.579939    94.654793

                             ****ORCA TERMINATED NORMALLY****
TOTAL RUN TIME: 0 days 0 hours 4 minutes 35 seconds 90 msec
