                         Program Version 5.0.3 -  RELEASE  -
|  1> ! B97-3c ENGRAD
|  2> %pal nprocs 1
|  3>     end
|  4> %Maxcore 3000.00
|  5> * xyzfile 0 1 4sa4am-44_2_697.xyz
|  6>
|  7>
|  8>                          ****END OF INPUT****

CARTESIAN COORDINATES (ANGSTROEM)
---------------------------------
  S      0.756034   -0.830399   -2.022328
  O      1.334984    0.514896   -2.051147
  O      0.398590   -1.227476   -0.655661
  O     -0.341299   -0.992049   -2.946385
  O      1.890044   -1.845186   -2.478048
  H      2.454139   -2.056716   -1.706795
  S     -3.919734    1.859143   -1.237932
  O     -3.204167    2.593351   -2.270825
  O     -4.428474    0.576893   -1.710714
  O     -3.164883    1.744860   -0.004621
  O     -5.199600    2.741433   -0.837392
  H     -5.756233    2.849991   -1.616852
  S      3.797311   -2.059063    1.301496
  O      4.326981   -0.759770    1.687826
  O      3.108391   -2.732609    2.396133
  O      3.005810   -2.004643    0.087214
  O      5.053279   -2.980383    0.913373
  H      5.622794   -3.067898    1.686145
  S     -0.527371    1.203807    1.903599
  O      0.311643    2.174076    1.196164
  O     -1.041541    0.177515    0.989503
  O      0.122079    0.634059    3.060211
  O     -1.806966    1.980853    2.434908
  H     -2.463429    2.041542    1.711614
  N     -0.727224    2.170735   -1.300565
  H     -0.015701    1.691284   -1.860818
  H     -1.559473    2.436383   -1.852103
  H     -1.039436    1.529796   -0.571129
  H     -0.331308    2.976744   -0.834886
  N     -2.424929   -1.087836   -1.129040
  H     -2.714127   -2.028877   -0.912490
  H     -3.244915   -0.500009   -1.387207
  H     -1.970534   -0.662942   -0.315655
  H     -1.743617   -1.099363   -1.900812
  N      0.588122   -1.911694    2.082773
  H     -0.107539   -2.578942    2.377600
  H      1.547321   -2.272186    2.268651
  H      0.502550   -1.734286    1.077880
  H      0.447020   -1.018002    2.574052
  N      2.501922    0.727376    0.379083
  H      1.931270   -0.073410    0.108059
  H      2.853070    1.141326   -0.474497
  H      1.901913    1.388931    0.881432
  H      3.277232    0.368745    0.960187

 Total Charge           Charge          ....    0
 Multiplicity           Mult            ....    1
 Number of Electrons    NEL             ....  240
 Basis Dimension        Dim             ....  608

ORBITAL ENERGIES
----------------

  NO   OCC          E(Eh)            E(eV)
   0   2.0000     -88.275710     -2402.1042
   1   2.0000     -88.275705     -2402.1040
   2   2.0000     -88.274936     -2402.0831
   3   2.0000     -88.274934     -2402.0831
   4   2.0000     -18.795673      -511.4563
   5   2.0000     -18.795670      -511.4562
   6   2.0000     -18.783100      -511.1141
   7   2.0000     -18.783098      -511.1141
   8   2.0000     -18.745597      -510.0936
   9   2.0000     -18.745593      -510.0935
  10   2.0000     -18.745116      -510.0805
  11   2.0000     -18.745101      -510.0801
  12   2.0000     -18.742363      -510.0056
  13   2.0000     -18.742343      -510.0051
  14   2.0000     -18.742253      -510.0026
  15   2.0000     -18.742252      -510.0026
  16   2.0000     -18.740611      -509.9580
  17   2.0000     -18.740600      -509.9577
  18   2.0000     -18.740123      -509.9447
  19   2.0000     -18.740117      -509.9445
  20   2.0000     -14.077457      -383.0671
  21   2.0000     -14.077440      -383.0666
  22   2.0000     -14.075641      -383.0177
  23   2.0000     -14.075632      -383.0174
  24   2.0000      -7.936294      -215.9575
  25   2.0000      -7.936288      -215.9574
  26   2.0000      -7.935855      -215.9456
  27   2.0000      -7.935853      -215.9455
  28   2.0000      -5.966846      -162.3661
  29   2.0000      -5.966840      -162.3660
  30   2.0000      -5.966571      -162.3587
  31   2.0000      -5.966569      -162.3586
  32   2.0000      -5.964035      -162.2897
  33   2.0000      -5.964030      -162.2895
  34   2.0000      -5.963708      -162.2808
  35   2.0000      -5.963708      -162.2808
  36   2.0000      -5.963685      -162.2801
  37   2.0000      -5.963680      -162.2800
  38   2.0000      -5.962841      -162.2572
  39   2.0000      -5.962837      -162.2570
  40   2.0000      -1.097584       -29.8668
  41   2.0000      -1.097206       -29.8565
  42   2.0000      -1.095925       -29.8216
  43   2.0000      -1.095371       -29.8066
  44   2.0000      -0.971286       -26.4300
  45   2.0000      -0.971150       -26.4263
  46   2.0000      -0.963282       -26.2122
  47   2.0000      -0.962607       -26.1939
  48   2.0000      -0.942851       -25.6563
  49   2.0000      -0.940173       -25.5834
  50   2.0000      -0.938791       -25.5458
  51   2.0000      -0.938198       -25.5297
  52   2.0000      -0.937483       -25.5102
  53   2.0000      -0.936414       -25.4811
  54   2.0000      -0.934297       -25.4235
  55   2.0000      -0.930775       -25.3277
  56   2.0000      -0.907939       -24.7063
  57   2.0000      -0.907622       -24.6976
  58   2.0000      -0.904714       -24.6185
  59   2.0000      -0.902088       -24.5471
  60   2.0000      -0.606176       -16.4949
  61   2.0000      -0.604361       -16.4455
  62   2.0000      -0.598058       -16.2740
  63   2.0000      -0.593764       -16.1571
  64   2.0000      -0.536846       -14.6083
  65   2.0000      -0.536696       -14.6043
  66   2.0000      -0.529336       -14.4040
  67   2.0000      -0.526142       -14.3171
  68   2.0000      -0.525853       -14.3092
  69   2.0000      -0.523994       -14.2586
  70   2.0000      -0.522831       -14.2269
  71   2.0000      -0.521171       -14.1818
  72   2.0000      -0.520060       -14.1515
  73   2.0000      -0.518195       -14.1008
  74   2.0000      -0.515489       -14.0272
  75   2.0000      -0.509908       -13.8753
  76   2.0000      -0.495372       -13.4797
  77   2.0000      -0.492294       -13.3960
  78   2.0000      -0.489295       -13.3144
  79   2.0000      -0.483420       -13.1545
  80   2.0000      -0.454124       -12.3573
  81   2.0000      -0.450407       -12.2562
  82   2.0000      -0.447109       -12.1664
  83   2.0000      -0.443682       -12.0732
  84   2.0000      -0.441603       -12.0166
  85   2.0000      -0.440159       -11.9773
  86   2.0000      -0.436700       -11.8832
  87   2.0000      -0.436599       -11.8805
  88   2.0000      -0.403934       -10.9916
  89   2.0000      -0.403262       -10.9733
  90   2.0000      -0.384014       -10.4496
  91   2.0000      -0.382643       -10.4122
  92   2.0000      -0.341852        -9.3023
  93   2.0000      -0.340286        -9.2597
  94   2.0000      -0.335977        -9.1424
  95   2.0000      -0.334807        -9.1106
  96   2.0000      -0.331428        -9.0186
  97   2.0000      -0.331155        -9.0112
  98   2.0000      -0.326830        -8.8935
  99   2.0000      -0.324153        -8.8207
 100   2.0000      -0.321682        -8.7534
 101   2.0000      -0.320607        -8.7242
 102   2.0000      -0.319088        -8.6828
 103   2.0000      -0.317718        -8.6455
 104   2.0000      -0.317427        -8.6376
 105   2.0000      -0.317364        -8.6359
 106   2.0000      -0.315864        -8.5951
 107   2.0000      -0.309234        -8.4147
 108   2.0000      -0.285532        -7.7697
 109   2.0000      -0.282761        -7.6943
 110   2.0000      -0.275088        -7.4855
 111   2.0000      -0.270986        -7.3739
 112   2.0000      -0.260585        -7.0909
 113   2.0000      -0.260307        -7.0833
 114   2.0000      -0.259212        -7.0535
 115   2.0000      -0.253694        -6.9034
 116   2.0000      -0.248699        -6.7674
 117   2.0000      -0.245277        -6.6743
 118   2.0000      -0.242240        -6.5917
 119   2.0000      -0.242230        -6.5914
 120   0.0000      -0.025489        -0.6936
 121   0.0000      -0.003793        -0.1032
 122   0.0000       0.001059         0.0288
 123   0.0000       0.009898         0.2693
 124   0.0000       0.009984         0.2717

MULLIKEN ATOMIC CHARGES
-----------------------
   0 S :    1.127464
   1 O :   -0.640541
   2 O :   -0.618608
   3 O :   -0.569794
   4 O :   -0.589010
   5 H :    0.461274
   6 S :    1.103217
   7 O :   -0.560658
   8 O :   -0.561456
   9 O :   -0.599714
  10 O :   -0.613774
  11 H :    0.463449
  12 S :    1.102979
  13 O :   -0.560762
  14 O :   -0.561338
  15 O :   -0.599459
  16 O :   -0.613729
  17 H :    0.463443
  18 S :    1.129987
  19 O :   -0.641304
  20 O :   -0.619430
  21 O :   -0.569991
  22 O :   -0.589393
  23 H :    0.461214
  24 N :   -0.739184
  25 H :    0.413030
  26 H :    0.404254
  27 H :    0.352575
  28 H :    0.385447
  29 N :   -0.821808
  30 H :    0.373485
  31 H :    0.402143
  32 H :    0.422045
  33 H :    0.405897
  34 N :   -0.822203
  35 H :    0.373502
  36 H :    0.402261
  37 H :    0.422228
  38 H :    0.405957
  39 N :   -0.739021
  40 H :    0.352612
  41 H :    0.385469
  42 H :    0.412958
  43 H :    0.404290
Sum of atomic charges:    0.0000000

LOEWDIN ATOMIC CHARGES
----------------------
   0 S :    1.874915
   1 O :   -0.859306
   2 O :   -0.895704
   3 O :   -0.768694
   4 O :   -0.682241
   5 H :    0.379430
   6 S :    1.863303
   7 O :   -0.799896
   8 O :   -0.804246
   9 O :   -0.819289
  10 O :   -0.674814
  11 H :    0.371478
  12 S :    1.863302
  13 O :   -0.799905
  14 O :   -0.804255
  15 O :   -0.819277
  16 O :   -0.674814
  17 H :    0.371476
  18 S :    1.874978
  19 O :   -0.859315
  20 O :   -0.895752
  21 O :   -0.768681
  22 O :   -0.682247
  23 H :    0.379430
  24 N :   -0.395197
  25 H :    0.330684
  26 H :    0.335913
  27 H :    0.331400
  28 H :    0.318616
  29 N :   -0.420789
  30 H :    0.301473
  31 H :    0.340488
  32 H :    0.336100
  33 H :    0.336355
  34 N :   -0.420798
  35 H :    0.301485
  36 H :    0.340492
  37 H :    0.336092
  38 H :    0.336369
  39 N :   -0.395194
  40 H :    0.331442
  41 H :    0.318631
  42 H :    0.330662
  43 H :    0.335902

  Mayer bond orders larger than 0.100000
B(  0-S ,  1-O ) :   1.5123 B(  0-S ,  2-O ) :   1.4652 B(  0-S ,  3-O ) :   1.6508
B(  0-S ,  4-O ) :   1.0907 B(  1-O , 25-H ) :   0.1131 B(  3-O , 33-H ) :   0.1531
B(  4-O ,  5-H ) :   0.6700 B(  6-S ,  7-O ) :   1.5783 B(  6-S ,  8-O ) :   1.5605
B(  6-S ,  9-O ) :   1.5496 B(  6-S , 10-O ) :   1.0737 B(  7-O , 26-H ) :   0.1636
B(  8-O , 31-H ) :   0.1981 B( 10-O , 11-H ) :   0.7270 B( 12-S , 13-O ) :   1.5783
B( 12-S , 14-O ) :   1.5607 B( 12-S , 15-O ) :   1.5494 B( 12-S , 16-O ) :   1.0737
B( 13-O , 43-H ) :   0.1635 B( 14-O , 36-H ) :   0.1981 B( 16-O , 17-H ) :   0.7270
B( 18-S , 19-O ) :   1.5123 B( 18-S , 20-O ) :   1.4640 B( 18-S , 21-O ) :   1.6506
B( 18-S , 22-O ) :   1.0908 B( 19-O , 42-H ) :   0.1131 B( 21-O , 38-H ) :   0.1531
B( 22-O , 23-H ) :   0.6700 B( 24-N , 25-H ) :   0.7120 B( 24-N , 26-H ) :   0.6809
B( 24-N , 27-H ) :   0.8392 B( 24-N , 28-H ) :   0.8188 B( 29-N , 30-H ) :   0.8442
B( 29-N , 31-H ) :   0.6520 B( 29-N , 32-H ) :   0.7357 B( 29-N , 33-H ) :   0.7008
B( 34-N , 35-H ) :   0.8442 B( 34-N , 36-H ) :   0.6519 B( 34-N , 37-H ) :   0.7357
B( 34-N , 38-H ) :   0.7007 B( 39-N , 40-H ) :   0.8390 B( 39-N , 41-H ) :   0.8188
B( 39-N , 42-H ) :   0.7121 B( 39-N , 43-H ) :   0.6810

Dispersion correction           -0.127430810
FINAL SINGLE POINT ENERGY     -3026.623126633414
Dispersion correction            ... done

DIPOLE MOMENT
-------------
                                X             Y             Z
Electronic contribution:      0.34030       0.55565      -0.17657
Nuclear contribution   :     -0.70867      -1.15723       0.36798
                        -----------------------------------------
Total Dipole Moment    :     -0.36837      -0.60158       0.19140
                        -----------------------------------------
Magnitude (a.u.)       :      0.73091
Magnitude (Debye)      :      1.85783

Rotational constants in cm-1:     0.009951     0.003333     0.002867
Rotational constants in MHz :   298.325489    99.926980    85.954871

                             ****ORCA TERMINATED NORMALLY****
TOTAL RUN TIME: 0 days 0 hours 4 minutes 22 seconds 624 msec
