                         Program Version 5.0.3 -  RELEASE  -
|  1> ! B97-3c ENGRAD
|  2> %pal nprocs 1
|  3>     end
|  4> %Maxcore 3000.00
|  5> * xyzfile 0 1 4sa4am-44_10_575.xyz
|  6>
|  7>
|  8>                          ****END OF INPUT****

CARTESIAN COORDINATES (ANGSTROEM)
---------------------------------
  S      1.365859   -0.353952    2.438249
  O      0.917295    0.408618    1.258441
  O      0.783154   -1.697388    2.446811
  O      2.789692   -0.323578    2.603728
  O      0.738926    0.419295    3.684991
  H     -0.190937    0.635789    3.475964
  S      0.233111   -2.360089   -1.044071
  O      1.601498   -1.873339   -1.216464
  O     -0.722572   -1.255404   -0.831467
  O     -0.193358   -3.251843   -2.084914
  O      0.226681   -3.211687    0.312446
  H      0.698189   -2.707297    1.018459
  S      1.598499    1.909650   -2.633327
  O      2.941999    2.285350   -2.269957
  O      1.403041    1.605990   -4.038324
  O      1.022414    0.900022   -1.763318
  O      0.649643    3.208893   -2.309197
  H      1.010830    3.960363   -2.793829
  S     -3.171278    0.906915    2.177512
  O     -3.459792    1.650148    0.961726
  O     -3.909556   -0.342054    2.275532
  O     -1.746414    0.740893    2.413169
  O     -3.659233    1.824734    3.410072
  H     -4.619652    1.896859    3.373260
  N      0.419468   -0.919401   -3.535488
  H      0.188378   -1.682988   -4.155190
  H      0.708482   -0.055863   -4.011478
  H     -0.362332   -0.719191   -2.916310
  H      1.170352   -1.207752   -2.898109
  N      3.114433    0.255796   -0.172223
  H      3.790120    0.117984    0.568410
  H      2.959113   -0.601718   -0.696577
  H      2.195616    0.450901    0.285541
  H      3.346818    1.021921   -0.799122
  N     -0.974407    1.621009   -0.143228
  H     -1.971094    1.736605    0.083505
  H     -0.634709    2.292621   -0.821243
  H     -0.445175    1.693241    0.723995
  H     -0.796702    0.675957   -0.486490
  N     -1.819972   -1.943242    1.630097
  H     -2.684343   -1.486338    1.957234
  H     -1.031392   -1.670881    2.225513
  H     -1.891043   -2.949930    1.606821
  H     -1.589650   -1.605619    0.688846

 Total Charge           Charge          ....    0
 Multiplicity           Mult            ....    1
 Number of Electrons    NEL             ....  240
 Basis Dimension        Dim             ....  608

ORBITAL ENERGIES
----------------

  NO   OCC          E(Eh)            E(eV)
   0   2.0000     -88.272594     -2402.0194
   1   2.0000     -88.272245     -2402.0099
   2   2.0000     -88.270824     -2401.9712
   3   2.0000     -88.266792     -2401.8615
   4   2.0000     -18.802706      -511.6476
   5   2.0000     -18.790120      -511.3052
   6   2.0000     -18.782918      -511.1092
   7   2.0000     -18.776102      -510.9237
   8   2.0000     -18.746475      -510.1175
   9   2.0000     -18.745392      -510.0881
  10   2.0000     -18.743449      -510.0352
  11   2.0000     -18.743372      -510.0331
  12   2.0000     -18.742216      -510.0016
  13   2.0000     -18.742043      -509.9969
  14   2.0000     -18.740993      -509.9684
  15   2.0000     -18.737646      -509.8773
  16   2.0000     -18.737635      -509.8770
  17   2.0000     -18.735180      -509.8102
  18   2.0000     -18.733015      -509.7513
  19   2.0000     -18.729435      -509.6538
  20   2.0000     -14.099491      -383.6667
  21   2.0000     -14.069322      -382.8457
  22   2.0000     -14.068712      -382.8291
  23   2.0000     -14.068704      -382.8289
  24   2.0000      -7.934339      -215.9043
  25   2.0000      -7.933118      -215.8711
  26   2.0000      -7.931835      -215.8362
  27   2.0000      -7.927657      -215.7225
  28   2.0000      -5.965479      -162.3289
  29   2.0000      -5.963696      -162.2804
  30   2.0000      -5.962526      -162.2486
  31   2.0000      -5.961724      -162.2268
  32   2.0000      -5.961117      -162.2102
  33   2.0000      -5.960743      -162.2001
  34   2.0000      -5.960493      -162.1933
  35   2.0000      -5.959734      -162.1726
  36   2.0000      -5.958748      -162.1458
  37   2.0000      -5.958021      -162.1260
  38   2.0000      -5.955425      -162.0553
  39   2.0000      -5.955050      -162.0451
  40   2.0000      -1.097964       -29.8771
  41   2.0000      -1.092901       -29.7393
  42   2.0000      -1.092417       -29.7262
  43   2.0000      -1.087231       -29.5851
  44   2.0000      -0.971979       -26.4489
  45   2.0000      -0.965218       -26.2649
  46   2.0000      -0.961787       -26.1716
  47   2.0000      -0.953693       -25.9513
  48   2.0000      -0.943861       -25.6838
  49   2.0000      -0.940188       -25.5838
  50   2.0000      -0.935853       -25.4659
  51   2.0000      -0.934779       -25.4366
  52   2.0000      -0.934161       -25.4198
  53   2.0000      -0.932575       -25.3766
  54   2.0000      -0.932217       -25.3669
  55   2.0000      -0.927643       -25.2424
  56   2.0000      -0.924906       -25.1680
  57   2.0000      -0.898851       -24.4590
  58   2.0000      -0.898735       -24.4558
  59   2.0000      -0.895867       -24.3778
  60   2.0000      -0.599673       -16.3179
  61   2.0000      -0.598310       -16.2809
  62   2.0000      -0.596582       -16.2338
  63   2.0000      -0.582590       -15.8531
  64   2.0000      -0.546973       -14.8839
  65   2.0000      -0.542128       -14.7521
  66   2.0000      -0.528307       -14.3760
  67   2.0000      -0.527704       -14.3596
  68   2.0000      -0.524928       -14.2840
  69   2.0000      -0.522690       -14.2231
  70   2.0000      -0.521061       -14.1788
  71   2.0000      -0.520090       -14.1524
  72   2.0000      -0.517211       -14.0740
  73   2.0000      -0.515103       -14.0167
  74   2.0000      -0.505622       -13.7587
  75   2.0000      -0.503466       -13.7000
  76   2.0000      -0.492526       -13.4023
  77   2.0000      -0.487304       -13.2602
  78   2.0000      -0.480318       -13.0701
  79   2.0000      -0.476859       -12.9760
  80   2.0000      -0.451791       -12.2939
  81   2.0000      -0.446223       -12.1423
  82   2.0000      -0.442628       -12.0445
  83   2.0000      -0.441759       -12.0209
  84   2.0000      -0.441057       -12.0018
  85   2.0000      -0.437027       -11.8921
  86   2.0000      -0.433792       -11.8041
  87   2.0000      -0.427633       -11.6365
  88   2.0000      -0.407904       -11.0996
  89   2.0000      -0.398206       -10.8357
  90   2.0000      -0.390350       -10.6220
  91   2.0000      -0.377977       -10.2853
  92   2.0000      -0.342781        -9.3275
  93   2.0000      -0.340605        -9.2683
  94   2.0000      -0.333902        -9.0859
  95   2.0000      -0.332111        -9.0372
  96   2.0000      -0.330097        -8.9824
  97   2.0000      -0.328098        -8.9280
  98   2.0000      -0.324748        -8.8368
  99   2.0000      -0.320619        -8.7245
 100   2.0000      -0.318920        -8.6782
 101   2.0000      -0.317190        -8.6312
 102   2.0000      -0.315124        -8.5750
 103   2.0000      -0.314137        -8.5481
 104   2.0000      -0.312937        -8.5155
 105   2.0000      -0.310370        -8.4456
 106   2.0000      -0.309879        -8.4322
 107   2.0000      -0.305657        -8.3173
 108   2.0000      -0.283337        -7.7100
 109   2.0000      -0.278322        -7.5735
 110   2.0000      -0.274316        -7.4645
 111   2.0000      -0.267648        -7.2831
 112   2.0000      -0.265160        -7.2154
 113   2.0000      -0.263799        -7.1783
 114   2.0000      -0.255655        -6.9567
 115   2.0000      -0.252064        -6.8590
 116   2.0000      -0.247846        -6.7442
 117   2.0000      -0.241627        -6.5750
 118   2.0000      -0.240034        -6.5317
 119   2.0000      -0.236761        -6.4426
 120   0.0000      -0.024879        -0.6770
 121   0.0000      -0.001907        -0.0519
 122   0.0000      -0.000789        -0.0215
 123   0.0000       0.013384         0.3642
 124   0.0000       0.020746         0.5645

MULLIKEN ATOMIC CHARGES
-----------------------
   0 S :    1.142097
   1 O :   -0.656468
   2 O :   -0.648731
   3 O :   -0.519695
   4 O :   -0.612272
   5 H :    0.453391
   6 S :    1.049466
   7 O :   -0.624853
   8 O :   -0.644837
   9 O :   -0.471438
  10 O :   -0.655065
  11 H :    0.444917
  12 S :    1.169152
  13 O :   -0.539316
  14 O :   -0.559425
  15 O :   -0.627672
  16 O :   -0.673378
  17 H :    0.464080
  18 S :    1.152155
  19 O :   -0.558054
  20 O :   -0.571848
  21 O :   -0.642962
  22 O :   -0.622796
  23 H :    0.458835
  24 N :   -0.853142
  25 H :    0.399605
  26 H :    0.409096
  27 H :    0.432989
  28 H :    0.436359
  29 N :   -0.823691
  30 H :    0.394794
  31 H :    0.416491
  32 H :    0.447316
  33 H :    0.392861
  34 N :   -0.813964
  35 H :    0.402843
  36 H :    0.374677
  37 H :    0.413181
  38 H :    0.456958
  39 N :   -0.810913
  40 H :    0.410247
  41 H :    0.421757
  42 H :    0.383065
  43 H :    0.404184
Sum of atomic charges:   -0.0000000

LOEWDIN ATOMIC CHARGES
----------------------
   0 S :    1.885624
   1 O :   -0.916541
   2 O :   -0.827041
   3 O :   -0.726075
   4 O :   -0.685883
   5 H :    0.375507
   6 S :    1.864288
   7 O :   -0.850413
   8 O :   -0.897078
   9 O :   -0.725875
  10 O :   -0.751804
  11 H :    0.380484
  12 S :    1.864774
  13 O :   -0.759919
  14 O :   -0.788736
  15 O :   -0.901915
  16 O :   -0.737218
  17 H :    0.369148
  18 S :    1.865781
  19 O :   -0.795491
  20 O :   -0.798098
  21 O :   -0.838787
  22 O :   -0.681617
  23 H :    0.369629
  24 N :   -0.394379
  25 H :    0.307777
  26 H :    0.335882
  27 H :    0.333591
  28 H :    0.344084
  29 N :   -0.403376
  30 H :    0.311029
  31 H :    0.330197
  32 H :    0.354769
  33 H :    0.321585
  34 N :   -0.376609
  35 H :    0.331937
  36 H :    0.312822
  37 H :    0.341407
  38 H :    0.338858
  39 N :   -0.399900
  40 H :    0.333722
  41 H :    0.339901
  42 H :    0.307401
  43 H :    0.336557

  Mayer bond orders larger than 0.100000
B(  0-S ,  1-O ) :   1.3899 B(  0-S ,  2-O ) :   1.4467 B(  0-S ,  3-O ) :   1.7906
B(  0-S ,  4-O ) :   1.0986 B(  1-O , 32-H ) :   0.1467 B(  2-O , 11-H ) :   0.1356
B(  4-O ,  5-H ) :   0.6739 B(  6-S ,  7-O ) :   1.5040 B(  6-S ,  8-O ) :   1.3511
B(  6-S ,  9-O ) :   1.8502 B(  6-S , 10-O ) :   1.0508 B(  8-O , 43-H ) :   0.1423
B( 10-O , 11-H ) :   0.6404 B( 12-S , 13-O ) :   1.6612 B( 12-S , 14-O ) :   1.5957
B( 12-S , 15-O ) :   1.4474 B( 12-S , 16-O ) :   0.9507 B( 13-O , 33-H ) :   0.1028
B( 14-O , 26-H ) :   0.1486 B( 16-O , 17-H ) :   0.7275 B( 18-S , 19-O ) :   1.5855
B( 18-S , 20-O ) :   1.5872 B( 18-S , 21-O ) :   1.4815 B( 18-S , 22-O ) :   1.0722
B( 19-O , 35-H ) :   0.1566 B( 20-O , 40-H ) :   0.1719 B( 22-O , 23-H ) :   0.7309
B( 24-N , 25-H ) :   0.8110 B( 24-N , 26-H ) :   0.6902 B( 24-N , 27-H ) :   0.7783
B( 24-N , 28-H ) :   0.7262 B( 29-N , 30-H ) :   0.8038 B( 29-N , 31-H ) :   0.7760
B( 29-N , 32-H ) :   0.6656 B( 29-N , 33-H ) :   0.7514 B( 34-N , 35-H ) :   0.6905
B( 34-N , 36-H ) :   0.7882 B( 34-N , 37-H ) :   0.7639 B( 34-N , 38-H ) :   0.7483
B( 39-N , 40-H ) :   0.6723 B( 39-N , 41-H ) :   0.7226 B( 39-N , 42-H ) :   0.8259
B( 39-N , 43-H ) :   0.7157

Dispersion correction           -0.128886682
FINAL SINGLE POINT ENERGY     -3026.626031273623
Dispersion correction            ... done

DIPOLE MOMENT
-------------
                                X             Y             Z
Electronic contribution:     -0.33816       0.98806       4.55350
Nuclear contribution   :     -0.19430      -0.45960      -6.31635
                        -----------------------------------------
Total Dipole Moment    :     -0.53246       0.52846      -1.76285
                        -----------------------------------------
Magnitude (a.u.)       :      1.91583
Magnitude (Debye)      :      4.86966

Rotational constants in cm-1:     0.006659     0.004121     0.003809
Rotational constants in MHz :   199.619455   123.541692   114.181228

                             ****ORCA TERMINATED NORMALLY****
TOTAL RUN TIME: 0 days 0 hours 4 minutes 31 seconds 278 msec
