                         Program Version 5.0.3 -  RELEASE  -
|  1> ! B97-3c ENGRAD
|  2> %pal nprocs 1
|  3>     end
|  4> %Maxcore 3000.00
|  5> * xyzfile 0 1 4sa4am-44_10_10.xyz
|  6>
|  7>
|  8>                          ****END OF INPUT****

CARTESIAN COORDINATES (ANGSTROEM)
---------------------------------
  S      1.507932    0.413375    1.352049
  O      0.402249   -0.018115    2.209538
  O      1.441434   -0.170121    0.013661
  O      1.624506    1.863052    1.306765
  O      2.842291   -0.113888    2.013329
  H      2.800759   -1.100649    1.997376
  S      2.193466   -3.662704    0.708097
  O      3.064620   -3.293949   -0.387048
  O      2.225057   -2.741052    1.830274
  O      0.828235   -3.956761    0.276465
  O      2.719583   -5.084421    1.258686
  H      3.673203   -5.028492    1.384664
  S     -1.697602   -0.534726   -1.138408
  O     -1.633568   -0.043466    0.237696
  O     -0.591169   -0.039893   -1.964581
  O     -1.837024   -1.973146   -1.199534
  O     -3.026225    0.078735   -1.762218
  H     -2.956580    1.048431   -1.639128
  S     -1.856273    4.011060   -0.905152
  O     -0.679961    4.425233   -1.658297
  O     -2.081753    2.573140   -1.015216
  O     -1.888047    4.467465    0.466961
  O     -3.109773    4.742805   -1.601570
  H     -2.946407    4.820198   -2.547408
  N      0.945918   -2.193338   -1.773844
  H      1.716687   -2.856391   -1.706861
  H      1.104416   -1.465849   -1.060699
  H      0.874509   -1.744668   -2.675854
  H      0.060546   -2.642938   -1.549104
  N      0.839862    2.194470   -1.378796
  H      1.594969    2.094656   -2.038922
  H      1.210880    2.180221   -0.424826
  H      0.313959    3.069354   -1.543336
  H      0.193853    1.392416   -1.485019
  N     -1.167320    2.196937    1.728336
  H     -1.556409    3.089021    1.381390
  H     -1.397113    1.452375    1.051409
  H     -0.149546    2.260224    1.774223
  H     -1.531739    1.942112    2.633080
  N     -0.828156   -2.337487    1.577011
  H     -1.553591   -2.136894    0.894926
  H     -0.311991   -1.456921    1.767086
  H     -1.213643   -2.700837    2.434068
  H     -0.165046   -3.018574    1.158730

 Total Charge           Charge          ....    0
 Multiplicity           Mult            ....    1
 Number of Electrons    NEL             ....  240
 Basis Dimension        Dim             ....  608

ORBITAL ENERGIES
----------------

  NO   OCC          E(Eh)            E(eV)
   0   2.0000     -88.272735     -2402.0232
   1   2.0000     -88.270532     -2401.9633
   2   2.0000     -88.268454     -2401.9067
   3   2.0000     -88.267558     -2401.8824
   4   2.0000     -18.789378      -511.2850
   5   2.0000     -18.788420      -511.2589
   6   2.0000     -18.774384      -510.8770
   7   2.0000     -18.773763      -510.8601
   8   2.0000     -18.750124      -510.2168
   9   2.0000     -18.745474      -510.0903
  10   2.0000     -18.740797      -509.9630
  11   2.0000     -18.738723      -509.9066
  12   2.0000     -18.738352      -509.8965
  13   2.0000     -18.736753      -509.8530
  14   2.0000     -18.735771      -509.8262
  15   2.0000     -18.735186      -509.8103
  16   2.0000     -18.734397      -509.7889
  17   2.0000     -18.734154      -509.7823
  18   2.0000     -18.733340      -509.7601
  19   2.0000     -18.731749      -509.7168
  20   2.0000     -14.081540      -383.1782
  21   2.0000     -14.067631      -382.7997
  22   2.0000     -14.066084      -382.7576
  23   2.0000     -14.063349      -382.6832
  24   2.0000      -7.933232      -215.8742
  25   2.0000      -7.931656      -215.8313
  26   2.0000      -7.929409      -215.7702
  27   2.0000      -7.928276      -215.7394
  28   2.0000      -5.963401      -162.2724
  29   2.0000      -5.962318      -162.2429
  30   2.0000      -5.961211      -162.2128
  31   2.0000      -5.960783      -162.2011
  32   2.0000      -5.960178      -162.1847
  33   2.0000      -5.959410      -162.1638
  34   2.0000      -5.958700      -162.1445
  35   2.0000      -5.958570      -162.1409
  36   2.0000      -5.957041      -162.0993
  37   2.0000      -5.956528      -162.0854
  38   2.0000      -5.956030      -162.0718
  39   2.0000      -5.955848      -162.0669
  40   2.0000      -1.093804       -29.7639
  41   2.0000      -1.091806       -29.7096
  42   2.0000      -1.090332       -29.6694
  43   2.0000      -1.087749       -29.5992
  44   2.0000      -0.964987       -26.2586
  45   2.0000      -0.963714       -26.2240
  46   2.0000      -0.957983       -26.0681
  47   2.0000      -0.955132       -25.9905
  48   2.0000      -0.937693       -25.5159
  49   2.0000      -0.936910       -25.4946
  50   2.0000      -0.935724       -25.4623
  51   2.0000      -0.933743       -25.4084
  52   2.0000      -0.931696       -25.3527
  53   2.0000      -0.930338       -25.3158
  54   2.0000      -0.926007       -25.1979
  55   2.0000      -0.925213       -25.1763
  56   2.0000      -0.908540       -24.7226
  57   2.0000      -0.897887       -24.4328
  58   2.0000      -0.895943       -24.3798
  59   2.0000      -0.892402       -24.2835
  60   2.0000      -0.600065       -16.3286
  61   2.0000      -0.597615       -16.2619
  62   2.0000      -0.589476       -16.0405
  63   2.0000      -0.584165       -15.8959
  64   2.0000      -0.531778       -14.4704
  65   2.0000      -0.528094       -14.3702
  66   2.0000      -0.525095       -14.2886
  67   2.0000      -0.521724       -14.1968
  68   2.0000      -0.520351       -14.1595
  69   2.0000      -0.518133       -14.0991
  70   2.0000      -0.516313       -14.0496
  71   2.0000      -0.514909       -14.0114
  72   2.0000      -0.510386       -13.8883
  73   2.0000      -0.509482       -13.8637
  74   2.0000      -0.509019       -13.8511
  75   2.0000      -0.504582       -13.7304
  76   2.0000      -0.491205       -13.3664
  77   2.0000      -0.486410       -13.2359
  78   2.0000      -0.477942       -13.0055
  79   2.0000      -0.472612       -12.8604
  80   2.0000      -0.452564       -12.3149
  81   2.0000      -0.445447       -12.1212
  82   2.0000      -0.444056       -12.0834
  83   2.0000      -0.441062       -12.0019
  84   2.0000      -0.436703       -11.8833
  85   2.0000      -0.432664       -11.7734
  86   2.0000      -0.429412       -11.6849
  87   2.0000      -0.426842       -11.6150
  88   2.0000      -0.394461       -10.7338
  89   2.0000      -0.392054       -10.6683
  90   2.0000      -0.384913       -10.4740
  91   2.0000      -0.382344       -10.4041
  92   2.0000      -0.335518        -9.1299
  93   2.0000      -0.334031        -9.0894
  94   2.0000      -0.331223        -9.0130
  95   2.0000      -0.330260        -8.9868
  96   2.0000      -0.326941        -8.8965
  97   2.0000      -0.325881        -8.8677
  98   2.0000      -0.323686        -8.8079
  99   2.0000      -0.322196        -8.7674
 100   2.0000      -0.316617        -8.6156
 101   2.0000      -0.315882        -8.5956
 102   2.0000      -0.314714        -8.5638
 103   2.0000      -0.312718        -8.5095
 104   2.0000      -0.311302        -8.4710
 105   2.0000      -0.311146        -8.4667
 106   2.0000      -0.308165        -8.3856
 107   2.0000      -0.301717        -8.2101
 108   2.0000      -0.277641        -7.5550
 109   2.0000      -0.274065        -7.4577
 110   2.0000      -0.271526        -7.3886
 111   2.0000      -0.265866        -7.2346
 112   2.0000      -0.255820        -6.9612
 113   2.0000      -0.254965        -6.9380
 114   2.0000      -0.253235        -6.8909
 115   2.0000      -0.247373        -6.7314
 116   2.0000      -0.244663        -6.6576
 117   2.0000      -0.243279        -6.6200
 118   2.0000      -0.241033        -6.5588
 119   2.0000      -0.236802        -6.4437
 120   0.0000      -0.017158        -0.4669
 121   0.0000       0.000027         0.0007
 122   0.0000       0.006566         0.1787
 123   0.0000       0.011850         0.3225
 124   0.0000       0.016228         0.4416

MULLIKEN ATOMIC CHARGES
-----------------------
   0 S :    1.218143
   1 O :   -0.620338
   2 O :   -0.600388
   3 O :   -0.671826
   4 O :   -0.582863
   5 H :    0.446288
   6 S :    1.196484
   7 O :   -0.571058
   8 O :   -0.574215
   9 O :   -0.676467
  10 O :   -0.620324
  11 H :    0.458659
  12 S :    1.247750
  13 O :   -0.644760
  14 O :   -0.653552
  15 O :   -0.617726
  16 O :   -0.609811
  17 H :    0.445632
  18 S :    1.161928
  19 O :   -0.593018
  20 O :   -0.613346
  21 O :   -0.567527
  22 O :   -0.623448
  23 H :    0.458240
  24 N :   -0.825730
  25 H :    0.413085
  26 H :    0.456391
  27 H :    0.388008
  28 H :    0.409866
  29 N :   -0.821912
  30 H :    0.367965
  31 H :    0.392546
  32 H :    0.400316
  33 H :    0.436651
  34 N :   -0.835690
  35 H :    0.407169
  36 H :    0.448067
  37 H :    0.405382
  38 H :    0.373946
  39 N :   -0.779828
  40 H :    0.399184
  41 H :    0.410479
  42 H :    0.368382
  43 H :    0.393265
Sum of atomic charges:   -0.0000000

LOEWDIN ATOMIC CHARGES
----------------------
   0 S :    1.889471
   1 O :   -0.846634
   2 O :   -0.857224
   3 O :   -0.828113
   4 O :   -0.689164
   5 H :    0.381117
   6 S :    1.868673
   7 O :   -0.783432
   8 O :   -0.781294
   9 O :   -0.854825
  10 O :   -0.679832
  11 H :    0.369084
  12 S :    1.885431
  13 O :   -0.873120
  14 O :   -0.867662
  15 O :   -0.794800
  16 O :   -0.685054
  17 H :    0.375893
  18 S :    1.868100
  19 O :   -0.805321
  20 O :   -0.835485
  21 O :   -0.779005
  22 O :   -0.679513
  23 H :    0.369641
  24 N :   -0.379263
  25 H :    0.326913
  26 H :    0.347349
  27 H :    0.309892
  28 H :    0.334264
  29 N :   -0.416835
  30 H :    0.299299
  31 H :    0.329671
  32 H :    0.333983
  33 H :    0.344826
  34 N :   -0.407741
  35 H :    0.335590
  36 H :    0.346585
  37 H :    0.329756
  38 H :    0.302838
  39 N :   -0.412447
  40 H :    0.325249
  41 H :    0.345358
  42 H :    0.297940
  43 H :    0.339842

  Mayer bond orders larger than 0.100000
B(  0-S ,  1-O ) :   1.4624 B(  0-S ,  2-O ) :   1.4720 B(  0-S ,  3-O ) :   1.4716
B(  0-S ,  4-O ) :   1.1478 B(  1-O , 41-H ) :   0.1466 B(  3-O , 31-H ) :   0.1415
B(  3-O , 37-H ) :   0.1082 B(  4-O ,  5-H ) :   0.6471 B(  5-H ,  8-O ) :   0.1192
B(  6-S ,  7-O ) :   1.6297 B(  6-S ,  8-O ) :   1.5182 B(  6-S ,  9-O ) :   1.4381
B(  6-S , 10-O ) :   1.0787 B(  9-O , 43-H ) :   0.1756 B( 10-O , 11-H ) :   0.7295
B( 12-S , 13-O ) :   1.4320 B( 12-S , 14-O ) :   1.4328 B( 12-S , 15-O ) :   1.5951
B( 12-S , 16-O ) :   1.1301 B( 14-O , 33-H ) :   0.1075 B( 16-O , 17-H ) :   0.6685
B( 18-S , 19-O ) :   1.5604 B( 18-S , 20-O ) :   1.4699 B( 18-S , 21-O ) :   1.5936
B( 18-S , 22-O ) :   1.0620 B( 19-O , 32-H ) :   0.1795 B( 21-O , 35-H ) :   0.1718
B( 22-O , 23-H ) :   0.7296 B( 24-N , 25-H ) :   0.7403 B( 24-N , 26-H ) :   0.7279
B( 24-N , 27-H ) :   0.8145 B( 24-N , 28-H ) :   0.7527 B( 29-N , 30-H ) :   0.8484
B( 29-N , 31-H ) :   0.7239 B( 29-N , 32-H ) :   0.6696 B( 29-N , 33-H ) :   0.7084
B( 34-N , 35-H ) :   0.6720 B( 34-N , 36-H ) :   0.6962 B( 34-N , 37-H ) :   0.7358
B( 34-N , 38-H ) :   0.8417 B( 39-N , 40-H ) :   0.7753 B( 39-N , 41-H ) :   0.6949
B( 39-N , 42-H ) :   0.8454 B( 39-N , 43-H ) :   0.6769

Dispersion correction           -0.130645297
FINAL SINGLE POINT ENERGY     -3026.638829746457
Dispersion correction            ... done

DIPOLE MOMENT
-------------
                                X             Y             Z
Electronic contribution:      0.60333       0.69099      -0.00081
Nuclear contribution   :     -0.48567      -1.40587      -0.29947
                        -----------------------------------------
Total Dipole Moment    :      0.11766      -0.71488      -0.30028
                        -----------------------------------------
Magnitude (a.u.)       :      0.78426
Magnitude (Debye)      :      1.99342

Rotational constants in cm-1:     0.010877     0.003410     0.003019
Rotational constants in MHz :   326.092426   102.216328    90.498465

                             ****ORCA TERMINATED NORMALLY****
TOTAL RUN TIME: 0 days 0 hours 4 minutes 31 seconds 289 msec
