                         Program Version 5.0.3 -  RELEASE  -
|  1> ! B97-3c ENGRAD
|  2> %pal nprocs 1
|  3>     end
|  4> %Maxcore 3000.00
|  5> * xyzfile 0 1 4sa4am-44_10_741.xyz
|  6>
|  7>
|  8>                          ****END OF INPUT****

CARTESIAN COORDINATES (ANGSTROEM)
---------------------------------
  S      3.298387   -1.108448   -1.109497
  O      2.823360   -0.131403   -0.133207
  O      2.733257   -2.432880   -0.902362
  O      3.198566   -0.641808   -2.476218
  O      4.868313   -1.323715   -0.801905
  H      5.329376   -0.491317   -0.952656
  S     -2.167459    3.012945   -0.353874
  O     -2.957457    3.057070    0.863672
  O     -0.970358    3.827152   -0.314436
  O     -1.912984    1.647067   -0.795524
  O     -3.097359    3.615723   -1.529964
  H     -3.269886    4.542634   -1.330218
  S     -0.155453    0.152048    3.432684
  O     -0.112475    0.421958    1.991307
  O     -1.497316    0.289525    3.969156
  O      0.523534   -1.074920    3.771307
  O      0.709884    1.334973    4.115199
  H      0.117015    1.916649    4.603649
  S     -1.219319   -1.429607   -1.382373
  O     -1.521616   -1.515697    0.044433
  O      0.000647   -0.621403   -1.605571
  O     -1.158300   -2.695261   -2.060874
  O     -2.402341   -0.624229   -2.066278
  H     -2.369020    0.307794   -1.744469
  N      1.276167   -2.287852   -3.206324
  H      0.844025   -1.494072   -2.680871
  H      0.528663   -2.896580   -3.513771
  H      1.847810   -1.922010   -3.953381
  H      1.870112   -2.747420   -2.512035
  N      0.802876    1.697251   -0.273909
  H      0.610686    1.405784    0.687450
  H      1.801645    1.690268   -0.437265
  H      0.361304    0.996810   -0.878299
  H      0.365338    2.608487   -0.433221
  N      1.045146   -1.860660    1.196575
  H      1.466924   -2.732246    0.904503
  H      1.616834   -1.093709    0.830650
  H      0.102562   -1.763173    0.806704
  H      0.987774   -1.769666    2.217048
  N     -2.878551    0.422324    1.604435
  H     -3.783092   -0.020204    1.559242
  H     -2.474501    0.352357    2.548819
  H     -2.237472   -0.040107    0.953509
  H     -2.945247    1.419567    1.348162

 Total Charge           Charge          ....    0
 Multiplicity           Mult            ....    1
 Number of Electrons    NEL             ....  240
 Basis Dimension        Dim             ....  608

ORBITAL ENERGIES
----------------

  NO   OCC          E(Eh)            E(eV)
   0   2.0000     -88.272442     -2402.0153
   1   2.0000     -88.269111     -2401.9246
   2   2.0000     -88.268040     -2401.8955
   3   2.0000     -88.266540     -2401.8547
   4   2.0000     -18.787730      -511.2401
   5   2.0000     -18.787514      -511.2342
   6   2.0000     -18.784080      -511.1408
   7   2.0000     -18.777281      -510.9558
   8   2.0000     -18.746830      -510.1272
   9   2.0000     -18.744078      -510.0523
  10   2.0000     -18.742993      -510.0228
  11   2.0000     -18.741728      -509.9883
  12   2.0000     -18.738644      -509.9044
  13   2.0000     -18.737045      -509.8609
  14   2.0000     -18.736063      -509.8342
  15   2.0000     -18.735985      -509.8321
  16   2.0000     -18.735135      -509.8089
  17   2.0000     -18.734440      -509.7900
  18   2.0000     -18.734033      -509.7790
  19   2.0000     -18.730187      -509.6743
  20   2.0000     -14.083486      -383.2311
  21   2.0000     -14.061744      -382.6395
  22   2.0000     -14.059782      -382.5861
  23   2.0000     -14.058155      -382.5419
  24   2.0000      -7.933268      -215.8752
  25   2.0000      -7.930138      -215.7900
  26   2.0000      -7.929115      -215.7622
  27   2.0000      -7.927519      -215.7188
  28   2.0000      -5.963618      -162.2783
  29   2.0000      -5.961190      -162.2122
  30   2.0000      -5.960804      -162.2017
  31   2.0000      -5.960573      -162.1954
  32   2.0000      -5.959837      -162.1754
  33   2.0000      -5.958369      -162.1355
  34   2.0000      -5.958190      -162.1306
  35   2.0000      -5.956911      -162.0958
  36   2.0000      -5.956777      -162.0921
  37   2.0000      -5.956199      -162.0764
  38   2.0000      -5.955187      -162.0489
  39   2.0000      -5.954511      -162.0305
  40   2.0000      -1.093864       -29.7656
  41   2.0000      -1.090758       -29.6810
  42   2.0000      -1.089812       -29.6553
  43   2.0000      -1.087701       -29.5978
  44   2.0000      -0.963057       -26.2061
  45   2.0000      -0.962435       -26.1892
  46   2.0000      -0.958837       -26.0913
  47   2.0000      -0.957164       -26.0458
  48   2.0000      -0.939533       -25.5660
  49   2.0000      -0.935833       -25.4653
  50   2.0000      -0.935150       -25.4467
  51   2.0000      -0.934393       -25.4261
  52   2.0000      -0.933124       -25.3916
  53   2.0000      -0.932079       -25.3632
  54   2.0000      -0.929597       -25.2956
  55   2.0000      -0.925499       -25.1841
  56   2.0000      -0.909109       -24.7381
  57   2.0000      -0.891586       -24.2613
  58   2.0000      -0.889924       -24.2161
  59   2.0000      -0.888602       -24.1801
  60   2.0000      -0.598209       -16.2781
  61   2.0000      -0.594345       -16.1730
  62   2.0000      -0.591905       -16.1066
  63   2.0000      -0.586908       -15.9706
  64   2.0000      -0.535355       -14.5677
  65   2.0000      -0.528288       -14.3754
  66   2.0000      -0.521695       -14.1960
  67   2.0000      -0.517536       -14.0829
  68   2.0000      -0.516765       -14.0619
  69   2.0000      -0.515140       -14.0177
  70   2.0000      -0.511333       -13.9141
  71   2.0000      -0.510805       -13.8997
  72   2.0000      -0.507789       -13.8176
  73   2.0000      -0.506685       -13.7876
  74   2.0000      -0.501779       -13.6541
  75   2.0000      -0.499274       -13.5859
  76   2.0000      -0.489968       -13.3327
  77   2.0000      -0.485272       -13.2049
  78   2.0000      -0.478558       -13.0222
  79   2.0000      -0.468888       -12.7591
  80   2.0000      -0.447798       -12.1852
  81   2.0000      -0.443160       -12.0590
  82   2.0000      -0.441823       -12.0226
  83   2.0000      -0.436121       -11.8674
  84   2.0000      -0.434065       -11.8115
  85   2.0000      -0.433191       -11.7877
  86   2.0000      -0.431785       -11.7495
  87   2.0000      -0.428405       -11.6575
  88   2.0000      -0.398464       -10.8427
  89   2.0000      -0.392346       -10.6763
  90   2.0000      -0.391577       -10.6553
  91   2.0000      -0.379118       -10.3163
  92   2.0000      -0.337120        -9.1735
  93   2.0000      -0.332799        -9.0559
  94   2.0000      -0.330835        -9.0025
  95   2.0000      -0.329181        -8.9575
  96   2.0000      -0.327583        -8.9140
  97   2.0000      -0.323814        -8.8114
  98   2.0000      -0.319275        -8.6879
  99   2.0000      -0.318555        -8.6683
 100   2.0000      -0.317937        -8.6515
 101   2.0000      -0.313923        -8.5423
 102   2.0000      -0.313565        -8.5325
 103   2.0000      -0.312086        -8.4923
 104   2.0000      -0.310913        -8.4604
 105   2.0000      -0.310052        -8.4369
 106   2.0000      -0.308708        -8.4004
 107   2.0000      -0.307714        -8.3733
 108   2.0000      -0.279209        -7.5977
 109   2.0000      -0.273036        -7.4297
 110   2.0000      -0.270785        -7.3684
 111   2.0000      -0.269985        -7.3467
 112   2.0000      -0.258647        -7.0381
 113   2.0000      -0.254231        -6.9180
 114   2.0000      -0.253281        -6.8921
 115   2.0000      -0.252297        -6.8654
 116   2.0000      -0.247812        -6.7433
 117   2.0000      -0.242062        -6.5868
 118   2.0000      -0.240865        -6.5543
 119   2.0000      -0.239656        -6.5214
 120   0.0000      -0.014727        -0.4007
 121   0.0000      -0.000707        -0.0192
 122   0.0000       0.010288         0.2799
 123   0.0000       0.011427         0.3110
 124   0.0000       0.021169         0.5760

MULLIKEN ATOMIC CHARGES
-----------------------
   0 S :    1.219854
   1 O :   -0.648867
   2 O :   -0.679595
   3 O :   -0.558236
   4 O :   -0.622413
   5 H :    0.455490
   6 S :    1.163218
   7 O :   -0.563240
   8 O :   -0.558872
   9 O :   -0.668940
  10 O :   -0.628023
  11 H :    0.458949
  12 S :    1.240824
  13 O :   -0.664113
  14 O :   -0.625892
  15 O :   -0.562692
  16 O :   -0.645527
  17 H :    0.457413
  18 S :    1.302655
  19 O :   -0.683043
  20 O :   -0.745296
  21 O :   -0.538645
  22 O :   -0.605419
  23 H :    0.439526
  24 N :   -0.805046
  25 H :    0.407041
  26 H :    0.397551
  27 H :    0.391246
  28 H :    0.411012
  29 N :   -0.835107
  30 H :    0.438234
  31 H :    0.395706
  32 H :    0.434665
  33 H :    0.402728
  34 N :   -0.805011
  35 H :    0.388722
  36 H :    0.422298
  37 H :    0.401762
  38 H :    0.400263
  39 N :   -0.788605
  40 H :    0.371070
  41 H :    0.393034
  42 H :    0.453140
  43 H :    0.386176
Sum of atomic charges:    0.0000000

LOEWDIN ATOMIC CHARGES
----------------------
   0 S :    1.861351
   1 O :   -0.854073
   2 O :   -0.845729
   3 O :   -0.784401
   4 O :   -0.685495
   5 H :    0.366852
   6 S :    1.871680
   7 O :   -0.789642
   8 O :   -0.780615
   9 O :   -0.853666
  10 O :   -0.685119
  11 H :    0.368714
  12 S :    1.874705
  13 O :   -0.899301
  14 O :   -0.796730
  15 O :   -0.768780
  16 O :   -0.687240
  17 H :    0.370244
  18 S :    1.883283
  19 O :   -0.845947
  20 O :   -0.913542
  21 O :   -0.746831
  22 O :   -0.701671
  23 H :    0.380855
  24 N :   -0.400747
  25 H :    0.353535
  26 H :    0.313537
  27 H :    0.311597
  28 H :    0.338079
  29 N :   -0.394750
  30 H :    0.336730
  31 H :    0.315771
  32 H :    0.341106
  33 H :    0.327960
  34 N :   -0.395954
  35 H :    0.310212
  36 H :    0.335165
  37 H :    0.331862
  38 H :    0.333335
  39 N :   -0.404918
  40 H :    0.297758
  41 H :    0.335650
  42 H :    0.338303
  43 H :    0.336866

  Mayer bond orders larger than 0.100000
B(  0-S ,  1-O ) :   1.4762 B(  0-S ,  2-O ) :   1.4940 B(  0-S ,  3-O ) :   1.6489
B(  0-S ,  4-O ) :   1.0747 B(  2-O , 28-H ) :   0.1087 B(  4-O ,  5-H ) :   0.7313
B(  6-S ,  7-O ) :   1.5745 B(  6-S ,  8-O ) :   1.6124 B(  6-S ,  9-O ) :   1.4619
B(  6-S , 10-O ) :   1.0662 B(  7-O , 43-H ) :   0.1792 B(  8-O , 33-H ) :   0.1304
B(  9-O , 23-H ) :   0.1218 B( 10-O , 11-H ) :   0.7310 B( 12-S , 13-O ) :   1.4477
B( 12-S , 14-O ) :   1.5515 B( 12-S , 15-O ) :   1.6299 B( 12-S , 16-O ) :   0.9948
B( 14-O , 41-H ) :   0.1658 B( 15-O , 38-H ) :   0.1447 B( 16-O , 17-H ) :   0.7288
B( 18-S , 19-O ) :   1.4519 B( 18-S , 20-O ) :   1.2476 B( 18-S , 21-O ) :   1.7624
B( 18-S , 22-O ) :   1.1193 B( 19-O , 37-H ) :   0.1301 B( 20-O , 25-H ) :   0.1877
B( 22-O , 23-H ) :   0.6433 B( 24-N , 25-H ) :   0.6727 B( 24-N , 26-H ) :   0.7950
B( 24-N , 27-H ) :   0.8207 B( 24-N , 28-H ) :   0.7369 B( 29-N , 30-H ) :   0.7258
B( 29-N , 31-H ) :   0.7954 B( 29-N , 32-H ) :   0.7176 B( 29-N , 33-H ) :   0.7131
B( 34-N , 35-H ) :   0.8098 B( 34-N , 36-H ) :   0.7419 B( 34-N , 37-H ) :   0.7203
B( 34-N , 38-H ) :   0.7049 B( 39-N , 40-H ) :   0.8459 B( 39-N , 41-H ) :   0.6965
B( 39-N , 42-H ) :   0.7524 B( 39-N , 43-H ) :   0.6887

Dispersion correction           -0.123984352
FINAL SINGLE POINT ENERGY     -3026.641614411140
Dispersion correction            ... done

DIPOLE MOMENT
-------------
                                X             Y             Z
Electronic contribution:     -1.04135       3.22432       2.18264
Nuclear contribution   :      1.37562      -3.25071      -3.50375
                        -----------------------------------------
Total Dipole Moment    :      0.33427      -0.02639      -1.32111
                        -----------------------------------------
Magnitude (a.u.)       :      1.36300
Magnitude (Debye)      :      3.46447

Rotational constants in cm-1:     0.006274     0.004291     0.003487
Rotational constants in MHz :   188.086669   128.639654   104.533131

                             ****ORCA TERMINATED NORMALLY****
TOTAL RUN TIME: 0 days 0 hours 4 minutes 20 seconds 746 msec
