                         Program Version 5.0.3 -  RELEASE  -
|  1> ! B97-3c ENGRAD
|  2> %pal nprocs 1
|  3>     end
|  4> %Maxcore 3000.00
|  5> * xyzfile 0 1 4sa4am-44_10_861.xyz
|  6>
|  7>
|  8>                          ****END OF INPUT****

CARTESIAN COORDINATES (ANGSTROEM)
---------------------------------
  S      2.463245   -3.219270   -0.015637
  O      1.756837   -3.206329    1.258673
  O      1.583847   -3.451235   -1.154176
  O      3.332819   -2.070114   -0.179732
  O      3.478339   -4.468943    0.031826
  H      2.962558   -5.280804    0.089131
  S     -2.459244    3.021442    1.119924
  O     -1.742360    2.569643    2.305196
  O     -1.589108    3.634779    0.124906
  O     -3.331305    1.998441    0.575274
  O     -3.472849    4.175398    1.604966
  H     -2.956243    4.918531    1.935551
  S      1.158079    1.878275   -0.387205
  O      0.715978    1.808173   -1.776247
  O      0.194885    1.209936    0.512428
  O      2.505651    1.396918   -0.192985
  O      1.143117    3.400989    0.047354
  H      0.198354    3.661206    0.156039
  S     -1.163694   -1.629352   -1.003919
  O     -0.732835   -1.082196   -2.286430
  O     -0.191937   -1.312747    0.063403
  O     -2.508757   -1.246419   -0.643965
  O     -1.148141   -3.208298   -1.123520
  H     -0.202892   -3.488761   -1.119570
  N      1.826660   -0.746786   -1.938597
  H      2.794762   -0.636458   -1.656644
  H      1.457595    0.115108   -2.338723
  H      1.712919   -1.538095   -2.560084
  H      1.272175   -0.950961   -1.103255
  N     -1.840993    1.369480   -1.545604
  H     -1.476400    0.699686   -2.222243
  H     -1.732118    2.327193   -1.856274
  H     -2.806646    1.166337   -1.310548
  H     -1.278983    1.273571   -0.695959
  N      1.960192   -0.551923    1.696147
  H      1.205052    0.033266    1.307139
  H      2.141365   -0.315979    2.659133
  H      1.716485   -1.556493    1.591166
  H      2.787141   -0.386450    1.127368
  N     -1.944641   -0.072421    1.798631
  H     -2.776378   -0.031982    1.214359
  H     -1.193422   -0.485358    1.224904
  H     -1.700754    0.906781    2.046208
  H     -2.118355   -0.627777    2.621591

 Total Charge           Charge          ....    0
 Multiplicity           Mult            ....    1
 Number of Electrons    NEL             ....  240
 Basis Dimension        Dim             ....  608

ORBITAL ENERGIES
----------------

  NO   OCC          E(Eh)            E(eV)
   0   2.0000     -88.269019     -2401.9221
   1   2.0000     -88.269008     -2401.9218
   2   2.0000     -88.267010     -2401.8674
   3   2.0000     -88.267001     -2401.8672
   4   2.0000     -18.789157      -511.2790
   5   2.0000     -18.789145      -511.2786
   6   2.0000     -18.773418      -510.8507
   7   2.0000     -18.773416      -510.8506
   8   2.0000     -18.740207      -509.9470
   9   2.0000     -18.740200      -509.9468
  10   2.0000     -18.739351      -509.9237
  11   2.0000     -18.739337      -509.9233
  12   2.0000     -18.736836      -509.8552
  13   2.0000     -18.736798      -509.8542
  14   2.0000     -18.734704      -509.7972
  15   2.0000     -18.734695      -509.7970
  16   2.0000     -18.734115      -509.7812
  17   2.0000     -18.734077      -509.7801
  18   2.0000     -18.732174      -509.7284
  19   2.0000     -18.732171      -509.7283
  20   2.0000     -14.080603      -383.1527
  21   2.0000     -14.080557      -383.1514
  22   2.0000     -14.079869      -383.1327
  23   2.0000     -14.079845      -383.1321
  24   2.0000      -7.929988      -215.7859
  25   2.0000      -7.929977      -215.7856
  26   2.0000      -7.927890      -215.7289
  27   2.0000      -7.927881      -215.7286
  28   2.0000      -5.960732      -162.1998
  29   2.0000      -5.960720      -162.1994
  30   2.0000      -5.958313      -162.1339
  31   2.0000      -5.958303      -162.1337
  32   2.0000      -5.957543      -162.1130
  33   2.0000      -5.957532      -162.1127
  34   2.0000      -5.957228      -162.1044
  35   2.0000      -5.957217      -162.1041
  36   2.0000      -5.955678      -162.0622
  37   2.0000      -5.955669      -162.0620
  38   2.0000      -5.955299      -162.0519
  39   2.0000      -5.955290      -162.0517
  40   2.0000      -1.091835       -29.7103
  41   2.0000      -1.091105       -29.6905
  42   2.0000      -1.088803       -29.6278
  43   2.0000      -1.087845       -29.6018
  44   2.0000      -0.964212       -26.2376
  45   2.0000      -0.964028       -26.2325
  46   2.0000      -0.955743       -26.0071
  47   2.0000      -0.953875       -25.9563
  48   2.0000      -0.935086       -25.4450
  49   2.0000      -0.933537       -25.4028
  50   2.0000      -0.933432       -25.4000
  51   2.0000      -0.931912       -25.3586
  52   2.0000      -0.931713       -25.3532
  53   2.0000      -0.930356       -25.3163
  54   2.0000      -0.928900       -25.2767
  55   2.0000      -0.926474       -25.2106
  56   2.0000      -0.908407       -24.7190
  57   2.0000      -0.908291       -24.7158
  58   2.0000      -0.906002       -24.6536
  59   2.0000      -0.904212       -24.6049
  60   2.0000      -0.597687       -16.2639
  61   2.0000      -0.597338       -16.2544
  62   2.0000      -0.586851       -15.9690
  63   2.0000      -0.580583       -15.7985
  64   2.0000      -0.536898       -14.6098
  65   2.0000      -0.536382       -14.5957
  66   2.0000      -0.527636       -14.3577
  67   2.0000      -0.526163       -14.3176
  68   2.0000      -0.523640       -14.2490
  69   2.0000      -0.522855       -14.2276
  70   2.0000      -0.521349       -14.1866
  71   2.0000      -0.520158       -14.1542
  72   2.0000      -0.516828       -14.0636
  73   2.0000      -0.513849       -13.9825
  74   2.0000      -0.513614       -13.9762
  75   2.0000      -0.507309       -13.8046
  76   2.0000      -0.493930       -13.4405
  77   2.0000      -0.490620       -13.3505
  78   2.0000      -0.481295       -13.0967
  79   2.0000      -0.479424       -13.0458
  80   2.0000      -0.445124       -12.1124
  81   2.0000      -0.444430       -12.0936
  82   2.0000      -0.442813       -12.0496
  83   2.0000      -0.440281       -11.9806
  84   2.0000      -0.439470       -11.9586
  85   2.0000      -0.436015       -11.8646
  86   2.0000      -0.432975       -11.7818
  87   2.0000      -0.431722       -11.7478
  88   2.0000      -0.394004       -10.7214
  89   2.0000      -0.393476       -10.7070
  90   2.0000      -0.385832       -10.4990
  91   2.0000      -0.384451       -10.4614
  92   2.0000      -0.335325        -9.1247
  93   2.0000      -0.334170        -9.0932
  94   2.0000      -0.330615        -8.9965
  95   2.0000      -0.329436        -8.9644
  96   2.0000      -0.324734        -8.8365
  97   2.0000      -0.324544        -8.8313
  98   2.0000      -0.320927        -8.7329
  99   2.0000      -0.317930        -8.6513
 100   2.0000      -0.317903        -8.6506
 101   2.0000      -0.314026        -8.5451
 102   2.0000      -0.313644        -8.5347
 103   2.0000      -0.310271        -8.4429
 104   2.0000      -0.310108        -8.4385
 105   2.0000      -0.307971        -8.3803
 106   2.0000      -0.307842        -8.3768
 107   2.0000      -0.301247        -8.1973
 108   2.0000      -0.276940        -7.5359
 109   2.0000      -0.273859        -7.4521
 110   2.0000      -0.269964        -7.3461
 111   2.0000      -0.263393        -7.1673
 112   2.0000      -0.255750        -6.9593
 113   2.0000      -0.255042        -6.9400
 114   2.0000      -0.252205        -6.8628
 115   2.0000      -0.245613        -6.6835
 116   2.0000      -0.244973        -6.6661
 117   2.0000      -0.240923        -6.5558
 118   2.0000      -0.239860        -6.5269
 119   2.0000      -0.238178        -6.4812
 120   0.0000      -0.023128        -0.6294
 121   0.0000      -0.001856        -0.0505
 122   0.0000       0.004666         0.1270
 123   0.0000       0.010039         0.2732
 124   0.0000       0.018783         0.5111

MULLIKEN ATOMIC CHARGES
-----------------------
   0 S :    1.153264
   1 O :   -0.571744
   2 O :   -0.599992
   3 O :   -0.623943
   4 O :   -0.618243
   5 H :    0.459124
   6 S :    1.153871
   7 O :   -0.571973
   8 O :   -0.600074
   9 O :   -0.624305
  10 O :   -0.618228
  11 H :    0.459108
  12 S :    1.147157
  13 O :   -0.609517
  14 O :   -0.651833
  15 O :   -0.576774
  16 O :   -0.576814
  17 H :    0.443860
  18 S :    1.146520
  19 O :   -0.609380
  20 O :   -0.651655
  21 O :   -0.576595
  22 O :   -0.576733
  23 H :    0.443797
  24 N :   -0.757652
  25 H :    0.409593
  26 H :    0.422862
  27 H :    0.403607
  28 H :    0.366110
  29 N :   -0.757617
  30 H :    0.422855
  31 H :    0.403546
  32 H :    0.409563
  33 H :    0.366093
  34 N :   -0.760815
  35 H :    0.377174
  36 H :    0.380361
  37 H :    0.380961
  38 H :    0.403395
  39 N :   -0.760498
  40 H :    0.403351
  41 H :    0.376952
  42 H :    0.380960
  43 H :    0.380302
Sum of atomic charges:    0.0000000

LOEWDIN ATOMIC CHARGES
----------------------
   0 S :    1.866361
   1 O :   -0.804439
   2 O :   -0.807666
   3 O :   -0.827267
   4 O :   -0.676941
   5 H :    0.368274
   6 S :    1.866354
   7 O :   -0.804421
   8 O :   -0.807703
   9 O :   -0.827292
  10 O :   -0.676944
  11 H :    0.368275
  12 S :    1.878479
  13 O :   -0.841662
  14 O :   -0.935597
  15 O :   -0.784919
  16 O :   -0.689540
  17 H :    0.378624
  18 S :    1.878485
  19 O :   -0.841655
  20 O :   -0.935639
  21 O :   -0.784959
  22 O :   -0.689527
  23 H :    0.378628
  24 N :   -0.356517
  25 H :    0.324457
  26 H :    0.330256
  27 H :    0.320538
  28 H :    0.336095
  29 N :   -0.356566
  30 H :    0.330285
  31 H :    0.320509
  32 H :    0.324494
  33 H :    0.336117
  34 N :   -0.395687
  35 H :    0.341603
  36 H :    0.298246
  37 H :    0.342336
  38 H :    0.335001
  39 N :   -0.395657
  40 H :    0.335019
  41 H :    0.341600
  42 H :    0.342337
  43 H :    0.298224

  Mayer bond orders larger than 0.100000
B(  0-S ,  1-O ) :   1.5279 B(  0-S ,  2-O ) :   1.4895 B(  0-S ,  3-O ) :   1.6035
B(  0-S ,  4-O ) :   1.0695 B(  1-O , 37-H ) :   0.1979 B(  2-O , 23-H ) :   0.1178
B(  4-O ,  5-H ) :   0.7291 B(  6-S ,  7-O ) :   1.5280 B(  6-S ,  8-O ) :   1.4898
B(  6-S ,  9-O ) :   1.6028 B(  6-S , 10-O ) :   1.0694 B(  7-O , 42-H ) :   0.1979
B(  8-O , 17-H ) :   0.1176 B( 10-O , 11-H ) :   0.7291 B( 12-S , 13-O ) :   1.5420
B( 12-S , 14-O ) :   1.3121 B( 12-S , 15-O ) :   1.6909 B( 12-S , 16-O ) :   1.1200
B( 14-O , 35-H ) :   0.1688 B( 16-O , 17-H ) :   0.6497 B( 18-S , 19-O ) :   1.5421
B( 18-S , 20-O ) :   1.3121 B( 18-S , 21-O ) :   1.6909 B( 18-S , 22-O ) :   1.1201
B( 20-O , 41-H ) :   0.1690 B( 22-O , 23-H ) :   0.6497 B( 24-N , 25-H ) :   0.7720
B( 24-N , 26-H ) :   0.7291 B( 24-N , 27-H ) :   0.7950 B( 24-N , 28-H ) :   0.8903
B( 29-N , 30-H ) :   0.7290 B( 29-N , 31-H ) :   0.7951 B( 29-N , 32-H ) :   0.7719
B( 29-N , 33-H ) :   0.8903 B( 34-N , 35-H ) :   0.7063 B( 34-N , 36-H ) :   0.8370
B( 34-N , 37-H ) :   0.6714 B( 34-N , 38-H ) :   0.7814 B( 39-N , 40-H ) :   0.7813
B( 39-N , 41-H ) :   0.7064 B( 39-N , 42-H ) :   0.6714 B( 39-N , 43-H ) :   0.8370

Dispersion correction           -0.140655374
FINAL SINGLE POINT ENERGY     -3026.615979787793
Dispersion correction            ... done

DIPOLE MOMENT
-------------
                                X             Y             Z
Electronic contribution:     -0.00566       0.16681      -0.93850
Nuclear contribution   :      0.01079      -0.33991       1.90966
                        -----------------------------------------
Total Dipole Moment    :      0.00512      -0.17310       0.97116
                        -----------------------------------------
Magnitude (a.u.)       :      0.98648
Magnitude (Debye)      :      2.50743

Rotational constants in cm-1:     0.010172     0.003835     0.003440
Rotational constants in MHz :   304.952158   114.972432   103.117146

                             ****ORCA TERMINATED NORMALLY****
TOTAL RUN TIME: 0 days 0 hours 4 minutes 45 seconds 162 msec
