                         Program Version 5.0.3 -  RELEASE  -
|  1> ! B97-3c ENGRAD
|  2> %pal nprocs 1
|  3>     end
|  4> %Maxcore 3000.00
|  5> * xyzfile 0 1 4sa4am-44_10_343.xyz
|  6>
|  7>
|  8>                          ****END OF INPUT****

CARTESIAN COORDINATES (ANGSTROEM)
---------------------------------
  S      1.773730    1.578917    0.577924
  O      2.432844    0.757548    1.571534
  O      0.597430    0.915751   -0.000999
  O      1.502423    2.934736    0.979668
  O      2.814439    1.720847   -0.660742
  H      3.180772    0.822672   -0.819301
  S     -1.386957   -1.424314    2.761534
  O     -0.589721   -0.237063    2.417713
  O     -0.999447   -2.529875    1.860924
  O     -1.397564   -1.772926    4.139642
  O     -2.900645   -1.045386    2.390307
  H     -2.948261   -0.541251    1.556943
  S      2.207885   -1.806073   -1.783191
  O      1.627953   -2.697298   -0.783485
  O      1.163915   -1.176878   -2.595768
  O      3.177395   -0.882261   -1.259392
  O      3.053332   -2.739339   -2.783594
  H      2.494190   -3.456264   -3.102472
  S     -2.638379    1.371949   -1.056070
  O     -2.811248    0.517301    0.114609
  O     -2.247351    2.721258   -0.691771
  O     -1.806504    0.769185   -2.078852
  O     -4.080518    1.479387   -1.764545
  H     -4.689434    1.944024   -1.180066
  N      1.723263   -1.836249    1.821927
  H      0.761212   -2.117334    2.038067
  H      1.942229   -2.171770    0.877611
  H      1.784538   -0.803959    1.814603
  H      2.369168   -2.209963    2.499975
  N     -1.076327    2.324897    1.794313
  H     -0.971496    1.305269    1.958133
  H     -1.576753    2.747757    2.559847
  H     -0.134469    2.713083    1.693311
  H     -1.567241    2.462759    0.903838
  N      0.762906    1.494994   -2.608932
  H     -0.193540    1.532605   -2.237054
  H      1.003690    0.488283   -2.651657
  H      0.807857    1.913416   -3.524804
  H      1.408493    1.934401   -1.953153
  N     -0.922329   -1.413480   -0.570744
  H     -1.033803   -1.958534    0.304870
  H     -0.349789   -1.914330   -1.240286
  H     -1.823392   -1.173913   -0.965008
  H     -0.444495   -0.542584   -0.325407

 Total Charge           Charge          ....    0
 Multiplicity           Mult            ....    1
 Number of Electrons    NEL             ....  240
 Basis Dimension        Dim             ....  608

ORBITAL ENERGIES
----------------

  NO   OCC          E(Eh)            E(eV)
   0   2.0000     -88.286001     -2402.3842
   1   2.0000     -88.281547     -2402.2630
   2   2.0000     -88.268860     -2401.9178
   3   2.0000     -88.254032     -2401.5143
   4   2.0000     -18.802643      -511.6459
   5   2.0000     -18.799101      -511.5495
   6   2.0000     -18.786340      -511.2023
   7   2.0000     -18.766492      -510.6622
   8   2.0000     -18.754275      -510.3298
   9   2.0000     -18.754001      -510.3223
  10   2.0000     -18.753444      -510.3071
  11   2.0000     -18.752264      -510.2750
  12   2.0000     -18.748516      -510.1730
  13   2.0000     -18.747098      -510.1345
  14   2.0000     -18.740010      -509.9416
  15   2.0000     -18.736451      -509.8447
  16   2.0000     -18.736309      -509.8409
  17   2.0000     -18.733401      -509.7618
  18   2.0000     -18.724380      -509.5163
  19   2.0000     -18.715453      -509.2734
  20   2.0000     -14.083905      -383.2425
  21   2.0000     -14.069036      -382.8379
  22   2.0000     -14.063673      -382.6920
  23   2.0000     -14.063533      -382.6882
  24   2.0000      -7.946816      -216.2439
  25   2.0000      -7.942371      -216.1229
  26   2.0000      -7.929987      -215.7859
  27   2.0000      -7.915072      -215.3801
  28   2.0000      -5.977396      -162.6532
  29   2.0000      -5.974472      -162.5736
  30   2.0000      -5.974152      -162.5649
  31   2.0000      -5.972900      -162.5309
  32   2.0000      -5.970153      -162.4561
  33   2.0000      -5.969628      -162.4418
  34   2.0000      -5.960772      -162.2009
  35   2.0000      -5.957686      -162.1169
  36   2.0000      -5.956984      -162.0978
  37   2.0000      -5.945922      -161.7968
  38   2.0000      -5.942842      -161.7130
  39   2.0000      -5.941970      -161.6892
  40   2.0000      -1.106904       -30.1204
  41   2.0000      -1.102907       -30.0116
  42   2.0000      -1.090712       -29.6798
  43   2.0000      -1.075793       -29.2738
  44   2.0000      -0.977944       -26.6112
  45   2.0000      -0.974094       -26.5065
  46   2.0000      -0.961539       -26.1648
  47   2.0000      -0.950930       -25.8761
  48   2.0000      -0.948869       -25.8200
  49   2.0000      -0.946227       -25.7481
  50   2.0000      -0.944941       -25.7132
  51   2.0000      -0.938896       -25.5486
  52   2.0000      -0.937821       -25.5194
  53   2.0000      -0.930010       -25.3069
  54   2.0000      -0.924041       -25.1444
  55   2.0000      -0.916049       -24.9270
  56   2.0000      -0.911402       -24.8005
  57   2.0000      -0.898230       -24.4421
  58   2.0000      -0.894235       -24.3334
  59   2.0000      -0.892717       -24.2921
  60   2.0000      -0.613360       -16.6904
  61   2.0000      -0.608509       -16.5584
  62   2.0000      -0.588117       -16.0035
  63   2.0000      -0.581019       -15.8103
  64   2.0000      -0.540971       -14.7206
  65   2.0000      -0.532863       -14.4999
  66   2.0000      -0.527139       -14.3442
  67   2.0000      -0.524397       -14.2696
  68   2.0000      -0.523327       -14.2405
  69   2.0000      -0.518662       -14.1135
  70   2.0000      -0.517691       -14.0871
  71   2.0000      -0.514838       -14.0095
  72   2.0000      -0.513429       -13.9711
  73   2.0000      -0.510524       -13.8921
  74   2.0000      -0.509997       -13.8777
  75   2.0000      -0.504167       -13.7191
  76   2.0000      -0.496808       -13.5188
  77   2.0000      -0.491165       -13.3653
  78   2.0000      -0.478664       -13.0251
  79   2.0000      -0.469699       -12.7812
  80   2.0000      -0.457900       -12.4601
  81   2.0000      -0.453177       -12.3316
  82   2.0000      -0.452241       -12.3061
  83   2.0000      -0.443401       -12.0656
  84   2.0000      -0.440154       -11.9772
  85   2.0000      -0.432157       -11.7596
  86   2.0000      -0.425319       -11.5735
  87   2.0000      -0.416030       -11.3207
  88   2.0000      -0.410100       -11.1594
  89   2.0000      -0.403053       -10.9676
  90   2.0000      -0.391643       -10.6571
  91   2.0000      -0.370831       -10.0908
  92   2.0000      -0.348258        -9.4766
  93   2.0000      -0.344240        -9.3672
  94   2.0000      -0.341029        -9.2799
  95   2.0000      -0.337465        -9.1829
  96   2.0000      -0.333502        -9.0750
  97   2.0000      -0.331368        -9.0170
  98   2.0000      -0.328831        -8.9479
  99   2.0000      -0.326885        -8.8950
 100   2.0000      -0.324974        -8.8430
 101   2.0000      -0.320008        -8.7079
 102   2.0000      -0.316928        -8.6241
 103   2.0000      -0.314472        -8.5572
 104   2.0000      -0.312518        -8.5040
 105   2.0000      -0.304823        -8.2946
 106   2.0000      -0.298643        -8.1265
 107   2.0000      -0.295259        -8.0344
 108   2.0000      -0.287663        -7.8277
 109   2.0000      -0.284384        -7.7385
 110   2.0000      -0.274762        -7.4766
 111   2.0000      -0.269677        -7.3383
 112   2.0000      -0.266410        -7.2494
 113   2.0000      -0.258973        -7.0470
 114   2.0000      -0.258288        -7.0284
 115   2.0000      -0.255003        -6.9390
 116   2.0000      -0.254328        -6.9206
 117   2.0000      -0.245649        -6.6845
 118   2.0000      -0.240289        -6.5386
 119   2.0000      -0.225239        -6.1291
 120   0.0000      -0.021084        -0.5737
 121   0.0000      -0.006342        -0.1726
 122   0.0000       0.000764         0.0208
 123   0.0000       0.007892         0.2147
 124   0.0000       0.013801         0.3755

MULLIKEN ATOMIC CHARGES
-----------------------
   0 S :    1.142771
   1 O :   -0.575983
   2 O :   -0.649226
   3 O :   -0.550731
   4 O :   -0.697170
   5 H :    0.448817
   6 S :    1.099182
   7 O :   -0.635458
   8 O :   -0.688912
   9 O :   -0.430826
  10 O :   -0.616249
  11 H :    0.449787
  12 S :    1.232536
  13 O :   -0.660872
  14 O :   -0.652453
  15 O :   -0.566296
  16 O :   -0.613544
  17 H :    0.459523
  18 S :    1.199778
  19 O :   -0.637547
  20 O :   -0.597362
  21 O :   -0.649528
  22 O :   -0.613291
  23 H :    0.460392
  24 N :   -0.776710
  25 H :    0.375969
  26 H :    0.410011
  27 H :    0.411908
  28 H :    0.375946
  29 N :   -0.818452
  30 H :    0.464011
  31 H :    0.374425
  32 H :    0.399122
  33 H :    0.392360
  34 N :   -0.801577
  35 H :    0.440727
  36 H :    0.427876
  37 H :    0.381328
  38 H :    0.391908
  39 N :   -0.794623
  40 H :    0.398172
  41 H :    0.397291
  42 H :    0.393165
  43 H :    0.499806
Sum of atomic charges:   -0.0000000

LOEWDIN ATOMIC CHARGES
----------------------
   0 S :    1.878381
   1 O :   -0.781771
   2 O :   -0.907055
   3 O :   -0.757294
   4 O :   -0.770358
   5 H :    0.378588
   6 S :    1.860040
   7 O :   -0.888676
   8 O :   -0.884915
   9 O :   -0.670679
  10 O :   -0.713727
  11 H :    0.370624
  12 S :    1.879410
  13 O :   -0.841285
  14 O :   -0.851359
  15 O :   -0.740884
  16 O :   -0.672880
  17 H :    0.370550
  18 S :    1.874388
  19 O :   -0.839967
  20 O :   -0.791786
  21 O :   -0.828619
  22 O :   -0.676091
  23 H :    0.369548
  24 N :   -0.409466
  25 H :    0.331124
  26 H :    0.332157
  27 H :    0.344059
  28 H :    0.302170
  29 N :   -0.415535
  30 H :    0.347612
  31 H :    0.296447
  32 H :    0.331567
  33 H :    0.331950
  34 N :   -0.400914
  35 H :    0.342185
  36 H :    0.344078
  37 H :    0.296969
  38 H :    0.331772
  39 N :   -0.382874
  40 H :    0.336828
  41 H :    0.319478
  42 H :    0.319981
  43 H :    0.336230

  Mayer bond orders larger than 0.100000
B(  0-S ,  1-O ) :   1.5688 B(  0-S ,  2-O ) :   1.4112 B(  0-S ,  3-O ) :   1.6546
B(  0-S ,  4-O ) :   0.9349 B(  1-O , 27-H ) :   0.1241 B(  3-O , 32-H ) :   0.1300
B(  4-O ,  5-H ) :   0.6586 B(  4-O , 38-H ) :   0.1100 B(  5-H , 15-O ) :   0.1134
B(  6-S ,  7-O ) :   1.4393 B(  6-S ,  8-O ) :   1.3226 B(  6-S ,  9-O ) :   1.9171
B(  6-S , 10-O ) :   1.0489 B(  8-O , 25-H ) :   0.1538 B(  8-O , 40-H ) :   0.1833
B( 10-O , 11-H ) :   0.6771 B( 12-S , 13-O ) :   1.4496 B( 12-S , 14-O ) :   1.4338
B( 12-S , 15-O ) :   1.5985 B( 12-S , 16-O ) :   1.1067 B( 13-O , 26-H ) :   0.1054
B( 14-O , 36-H ) :   0.1341 B( 16-O , 17-H ) :   0.7273 B( 18-S , 19-O ) :   1.5026
B( 18-S , 20-O ) :   1.5475 B( 18-S , 21-O ) :   1.5377 B( 18-S , 22-O ) :   1.0910
B( 20-O , 33-H ) :   0.1555 B( 22-O , 23-H ) :   0.7264 B( 24-N , 25-H ) :   0.7114
B( 24-N , 26-H ) :   0.7288 B( 24-N , 27-H ) :   0.6991 B( 24-N , 28-H ) :   0.8421
B( 29-N , 30-H ) :   0.6812 B( 29-N , 31-H ) :   0.8408 B( 29-N , 32-H ) :   0.7231
B( 29-N , 33-H ) :   0.7047 B( 34-N , 35-H ) :   0.7317 B( 34-N , 36-H ) :   0.6983
B( 34-N , 37-H ) :   0.8319 B( 34-N , 38-H ) :   0.7462 B( 39-N , 40-H ) :   0.6613
B( 39-N , 41-H ) :   0.7736 B( 39-N , 42-H ) :   0.7936 B( 39-N , 43-H ) :   0.7980

Dispersion correction           -0.131056002
FINAL SINGLE POINT ENERGY     -3026.642909580331
Dispersion correction            ... done

DIPOLE MOMENT
-------------
                                X             Y             Z
Electronic contribution:     -0.15012      -1.19359       1.02846
Nuclear contribution   :      0.09607       1.73746      -3.07798
                        -----------------------------------------
Total Dipole Moment    :     -0.05405       0.54387      -2.04952
                        -----------------------------------------
Magnitude (a.u.)       :      2.12115
Magnitude (Debye)      :      5.39153

Rotational constants in cm-1:     0.006259     0.004945     0.004207
Rotational constants in MHz :   187.638423   148.238092   126.135006

                             ****ORCA TERMINATED NORMALLY****
TOTAL RUN TIME: 0 days 0 hours 4 minutes 32 seconds 241 msec
