                         Program Version 5.0.3 -  RELEASE  -
|  1> ! B97-3c ENGRAD
|  2> %pal nprocs 1
|  3>     end
|  4> %Maxcore 3000.00
|  5> * xyzfile 0 1 4sa4am-44_10_521.xyz
|  6>
|  7>
|  8>                          ****END OF INPUT****

CARTESIAN COORDINATES (ANGSTROEM)
---------------------------------
  S      3.460315   -2.573300    0.201059
  O      3.954674   -1.218134    0.030854
  O      2.853519   -2.811189    1.497306
  O      2.617231   -3.008283   -0.907117
  O      4.738855   -3.547319    0.098969
  H      5.356161   -3.316476    0.802069
  S     -3.571252    2.772787    0.144824
  O     -3.483125    1.387454   -0.292618
  O     -3.179547    2.903550    1.546295
  O     -2.912020    3.715422   -0.730899
  O     -5.121362    3.194422    0.057772
  H     -5.642043    2.608084    0.616391
  S      1.560782    0.909846    0.893518
  O      0.893766   -0.380384    0.983572
  O      1.791276    1.318634   -0.498711
  O      0.874755    1.950899    1.651020
  O      2.977948    0.759230    1.572817
  H      3.448880    0.019424    1.114463
  S     -1.479067   -0.910050   -1.239637
  O     -1.709977   -1.165537    0.193270
  O     -0.764111    0.342847   -1.470444
  O     -0.849228   -2.034629   -1.894749
  O     -2.910592   -0.739927   -1.892272
  H     -3.317757    0.048130   -1.465768
  N      1.747798   -0.787184   -2.164828
  H      0.784189   -1.056501   -2.354214
  H      2.225643   -0.511646   -3.007914
  H      1.739335    0.001712   -1.486215
  H      2.222656   -1.589168   -1.721292
  N     -0.349278    2.929204   -0.689578
  H      0.046655    2.922833    0.250601
  H     -0.498767    1.945692   -0.960420
  H     -1.270598    3.399300   -0.709594
  H      0.311531    3.342843   -1.329674
  N      0.277687   -2.984397    0.605550
  H     -0.388222   -2.196453    0.591852
  H     -0.134083   -3.798026    1.034806
  H      0.536900   -3.181253   -0.356942
  H      1.138732   -2.706841    1.099989
  N     -1.598449    0.805458    2.051348
  H     -0.642841    1.180284    2.066801
  H     -1.802336    0.319532    2.909976
  H     -2.263621    1.588219    1.903417
  H     -1.671011    0.150894    1.254350

 Total Charge           Charge          ....    0
 Multiplicity           Mult            ....    1
 Number of Electrons    NEL             ....  240
 Basis Dimension        Dim             ....  608

ORBITAL ENERGIES
----------------

  NO   OCC          E(Eh)            E(eV)
   0   2.0000     -88.271826     -2401.9985
   1   2.0000     -88.271516     -2401.9901
   2   2.0000     -88.268093     -2401.8969
   3   2.0000     -88.264831     -2401.8081
   4   2.0000     -18.791206      -511.3347
   5   2.0000     -18.787749      -511.2406
   6   2.0000     -18.776194      -510.9262
   7   2.0000     -18.767186      -510.6811
   8   2.0000     -18.746160      -510.1090
   9   2.0000     -18.743689      -510.0417
  10   2.0000     -18.742221      -510.0018
  11   2.0000     -18.741597      -509.9848
  12   2.0000     -18.739887      -509.9383
  13   2.0000     -18.737003      -509.8598
  14   2.0000     -18.735545      -509.8201
  15   2.0000     -18.735252      -509.8121
  16   2.0000     -18.733921      -509.7759
  17   2.0000     -18.733878      -509.7747
  18   2.0000     -18.731305      -509.7047
  19   2.0000     -18.724437      -509.5178
  20   2.0000     -14.075605      -383.0167
  21   2.0000     -14.069221      -382.8430
  22   2.0000     -14.063699      -382.6927
  23   2.0000     -14.058432      -382.5494
  24   2.0000      -7.932711      -215.8600
  25   2.0000      -7.932399      -215.8515
  26   2.0000      -7.928850      -215.7550
  27   2.0000      -7.925541      -215.6649
  28   2.0000      -5.963299      -162.2696
  29   2.0000      -5.962480      -162.2473
  30   2.0000      -5.960403      -162.1908
  31   2.0000      -5.960258      -162.1869
  32   2.0000      -5.960112      -162.1829
  33   2.0000      -5.959870      -162.1763
  34   2.0000      -5.959610      -162.1692
  35   2.0000      -5.956490      -162.0843
  36   2.0000      -5.956026      -162.0717
  37   2.0000      -5.955706      -162.0630
  38   2.0000      -5.953474      -162.0023
  39   2.0000      -5.953071      -161.9913
  40   2.0000      -1.094384       -29.7797
  41   2.0000      -1.092060       -29.7165
  42   2.0000      -1.088761       -29.6267
  43   2.0000      -1.085495       -29.5378
  44   2.0000      -0.966671       -26.3044
  45   2.0000      -0.962681       -26.1959
  46   2.0000      -0.957834       -26.0640
  47   2.0000      -0.951828       -25.9005
  48   2.0000      -0.937463       -25.5097
  49   2.0000      -0.936536       -25.4844
  50   2.0000      -0.934864       -25.4389
  51   2.0000      -0.933618       -25.4050
  52   2.0000      -0.932185       -25.3660
  53   2.0000      -0.929583       -25.2952
  54   2.0000      -0.924970       -25.1697
  55   2.0000      -0.921460       -25.0742
  56   2.0000      -0.904108       -24.6020
  57   2.0000      -0.898627       -24.4529
  58   2.0000      -0.893721       -24.3194
  59   2.0000      -0.888821       -24.1861
  60   2.0000      -0.600894       -16.3512
  61   2.0000      -0.598448       -16.2846
  62   2.0000      -0.589900       -16.0520
  63   2.0000      -0.582208       -15.8427
  64   2.0000      -0.530042       -14.4232
  65   2.0000      -0.525118       -14.2892
  66   2.0000      -0.521327       -14.1860
  67   2.0000      -0.519679       -14.1412
  68   2.0000      -0.517226       -14.0744
  69   2.0000      -0.516165       -14.0456
  70   2.0000      -0.514932       -14.0120
  71   2.0000      -0.513343       -13.9688
  72   2.0000      -0.511771       -13.9260
  73   2.0000      -0.506701       -13.7880
  74   2.0000      -0.505273       -13.7492
  75   2.0000      -0.502606       -13.6766
  76   2.0000      -0.490454       -13.3459
  77   2.0000      -0.486057       -13.2263
  78   2.0000      -0.476605       -12.9691
  79   2.0000      -0.473965       -12.8972
  80   2.0000      -0.449177       -12.2227
  81   2.0000      -0.445562       -12.1244
  82   2.0000      -0.442357       -12.0371
  83   2.0000      -0.440069       -11.9749
  84   2.0000      -0.435832       -11.8596
  85   2.0000      -0.432799       -11.7770
  86   2.0000      -0.429992       -11.7007
  87   2.0000      -0.425676       -11.5832
  88   2.0000      -0.395602       -10.7649
  89   2.0000      -0.393020       -10.6946
  90   2.0000      -0.381286       -10.3753
  91   2.0000      -0.380085       -10.3426
  92   2.0000      -0.337330        -9.1792
  93   2.0000      -0.332482        -9.0473
  94   2.0000      -0.329898        -8.9770
  95   2.0000      -0.328906        -8.9500
  96   2.0000      -0.327704        -8.9173
  97   2.0000      -0.324914        -8.8414
  98   2.0000      -0.321905        -8.7595
  99   2.0000      -0.321647        -8.7525
 100   2.0000      -0.316501        -8.6124
 101   2.0000      -0.314528        -8.5588
 102   2.0000      -0.313203        -8.5227
 103   2.0000      -0.311524        -8.4770
 104   2.0000      -0.309474        -8.4212
 105   2.0000      -0.308145        -8.3851
 106   2.0000      -0.307046        -8.3551
 107   2.0000      -0.299509        -8.1501
 108   2.0000      -0.277609        -7.5541
 109   2.0000      -0.275616        -7.4999
 110   2.0000      -0.270644        -7.3646
 111   2.0000      -0.264592        -7.1999
 112   2.0000      -0.256738        -6.9862
 113   2.0000      -0.253226        -6.8906
 114   2.0000      -0.251957        -6.8561
 115   2.0000      -0.245941        -6.6924
 116   2.0000      -0.243778        -6.6335
 117   2.0000      -0.242177        -6.5900
 118   2.0000      -0.238268        -6.4836
 119   2.0000      -0.235734        -6.4146
 120   0.0000      -0.016088        -0.4378
 121   0.0000      -0.001595        -0.0434
 122   0.0000       0.006979         0.1899
 123   0.0000       0.011438         0.3112
 124   0.0000       0.015139         0.4120

MULLIKEN ATOMIC CHARGES
-----------------------
   0 S :    1.223403
   1 O :   -0.594852
   2 O :   -0.560431
   3 O :   -0.682122
   4 O :   -0.615880
   5 H :    0.459476
   6 S :    1.106419
   7 O :   -0.573851
   8 O :   -0.589138
   9 O :   -0.565188
  10 O :   -0.612137
  11 H :    0.457899
  12 S :    1.183234
  13 O :   -0.532301
  14 O :   -0.628562
  15 O :   -0.686768
  16 O :   -0.567246
  17 H :    0.438938
  18 S :    1.270788
  19 O :   -0.702022
  20 O :   -0.634912
  21 O :   -0.615191
  22 O :   -0.597767
  23 H :    0.450635
  24 N :   -0.775510
  25 H :    0.394456
  26 H :    0.367645
  27 H :    0.398406
  28 H :    0.391756
  29 N :   -0.850410
  30 H :    0.406201
  31 H :    0.459267
  32 H :    0.420348
  33 H :    0.379732
  34 N :   -0.763245
  35 H :    0.404044
  36 H :    0.374838
  37 H :    0.392760
  38 H :    0.392069
  39 N :   -0.799295
  40 H :    0.391208
  41 H :    0.363465
  42 H :    0.395577
  43 H :    0.424264
Sum of atomic charges:    0.0000000

LOEWDIN ATOMIC CHARGES
----------------------
   0 S :    1.871897
   1 O :   -0.775983
   2 O :   -0.789659
   3 O :   -0.847664
   4 O :   -0.675866
   5 H :    0.369664
   6 S :    1.865710
   7 O :   -0.800983
   8 O :   -0.815775
   9 O :   -0.781718
  10 O :   -0.677128
  11 H :    0.368264
  12 S :    1.886176
  13 O :   -0.832693
  14 O :   -0.862720
  15 O :   -0.844742
  16 O :   -0.694815
  17 H :    0.379413
  18 S :    1.889834
  19 O :   -0.888236
  20 O :   -0.857823
  21 O :   -0.789305
  22 O :   -0.683543
  23 H :    0.380261
  24 N :   -0.413072
  25 H :    0.326870
  26 H :    0.297621
  27 H :    0.344978
  28 H :    0.335391
  29 N :   -0.411732
  30 H :    0.330185
  31 H :    0.344830
  32 H :    0.335476
  33 H :    0.307701
  34 N :   -0.386717
  35 H :    0.343331
  36 H :    0.298229
  37 H :    0.329606
  38 H :    0.342265
  39 N :   -0.425968
  40 H :    0.332376
  41 H :    0.297245
  42 H :    0.337229
  43 H :    0.341590

  Mayer bond orders larger than 0.100000
B(  0-S ,  1-O ) :   1.4950 B(  0-S ,  2-O ) :   1.5783 B(  0-S ,  3-O ) :   1.4599
B(  0-S ,  4-O ) :   1.0750 B(  1-O , 17-H ) :   0.1326 B(  2-O , 38-H ) :   0.1580
B(  3-O , 28-H ) :   0.1599 B(  4-O ,  5-H ) :   0.7301 B(  6-S ,  7-O ) :   1.5161
B(  6-S ,  8-O ) :   1.5078 B(  6-S ,  9-O ) :   1.6109 B(  6-S , 10-O ) :   1.0877
B(  8-O , 42-H ) :   0.1850 B(  9-O , 32-H ) :   0.1627 B( 10-O , 11-H ) :   0.7298
B( 12-S , 13-O ) :   1.5369 B( 12-S , 14-O ) :   1.4368 B( 12-S , 15-O ) :   1.4596
B( 12-S , 16-O ) :   1.1572 B( 14-O , 27-H ) :   0.1707 B( 15-O , 40-H ) :   0.1518
B( 16-O , 17-H ) :   0.6424 B( 18-S , 19-O ) :   1.3304 B( 18-S , 20-O ) :   1.4696
B( 18-S , 21-O ) :   1.6187 B( 18-S , 22-O ) :   1.1462 B( 19-O , 35-H ) :   0.1832
B( 19-O , 43-H ) :   0.1109 B( 22-O , 23-H ) :   0.6574 B( 24-N , 25-H ) :   0.7576
B( 24-N , 26-H ) :   0.8468 B( 24-N , 27-H ) :   0.6815 B( 24-N , 28-H ) :   0.6944
B( 29-N , 30-H ) :   0.7421 B( 29-N , 31-H ) :   0.7124 B( 29-N , 32-H ) :   0.6606
B( 29-N , 33-H ) :   0.8365 B( 34-N , 35-H ) :   0.6733 B( 34-N , 36-H ) :   0.8376
B( 34-N , 37-H ) :   0.7875 B( 34-N , 38-H ) :   0.6977 B( 39-N , 40-H ) :   0.7113
B( 39-N , 41-H ) :   0.8502 B( 39-N , 42-H ) :   0.6691 B( 39-N , 43-H ) :   0.7068

Dispersion correction           -0.130193725
FINAL SINGLE POINT ENERGY     -3026.641652617307
Dispersion correction            ... done

DIPOLE MOMENT
-------------
                                X             Y             Z
Electronic contribution:     -0.16974       0.48503      -0.02941
Nuclear contribution   :      0.30229      -1.41928       0.37471
                        -----------------------------------------
Total Dipole Moment    :      0.13254      -0.93425       0.34530
                        -----------------------------------------
Magnitude (a.u.)       :      1.00480
Magnitude (Debye)      :      2.55399

Rotational constants in cm-1:     0.011082     0.003389     0.003012
Rotational constants in MHz :   332.221213   101.594887    90.292822

                             ****ORCA TERMINATED NORMALLY****
TOTAL RUN TIME: 0 days 0 hours 4 minutes 27 seconds 627 msec
