                         Program Version 5.0.3 -  RELEASE  -
|  1> ! B97-3c ENGRAD
|  2> %pal nprocs 1
|  3>     end
|  4> %Maxcore 3000.00
|  5> * xyzfile 0 1 4sa4am-44_1_996.xyz
|  6>
|  7>
|  8>                          ****END OF INPUT****

CARTESIAN COORDINATES (ANGSTROEM)
---------------------------------
  S     -2.594003   -0.727214   -1.470251
  O     -3.505550   -1.398282   -0.580822
  O     -3.115076    0.424626   -2.161080
  O     -1.283775   -0.479994   -0.870761
  O     -2.199506   -1.825134   -2.640818
  H     -3.029935   -2.114950   -3.035306
  S      1.149637   -2.422198    1.360911
  O      2.168876   -1.814792    0.517085
  O      0.819277   -1.604520    2.512370
  O     -0.007697   -2.877782    0.610687
  O      1.781818   -3.794117    1.933674
  H      2.495567   -3.578098    2.543098
  S      2.201710    1.349347   -1.653518
  O      1.689421    2.394826   -2.505064
  O      3.323842    1.703259   -0.824681
  O      1.143930    0.654391   -0.921753
  O      2.723183    0.150335   -2.656862
  H      3.503602    0.487905   -3.110588
  S     -0.952738    2.125819    1.984927
  O      0.059682    2.803284    1.177146
  O     -2.093281    1.715359    1.179603
  O     -0.419743    1.080618    2.823237
  O     -1.500750    3.222917    3.034486
  H     -1.869395    3.968214    2.548354
  N      2.068158    0.810842    1.568462
  H      2.995756    1.206262    1.621858
  H      1.696300    0.521578    2.468412
  H      1.429441    1.503790    1.167522
  H      2.084331   -0.007537    0.949994
  N     -0.985259    2.185704   -1.371620
  H     -0.300243    2.363623   -2.101113
  H     -0.688100    2.653484   -0.513545
  H     -1.926798    2.439964   -1.637464
  H     -0.987222    1.173557   -1.161044
  N      0.711012   -1.836435   -1.860248
  H      0.866479   -0.876380   -1.502498
  H      1.580982   -2.174447   -2.243593
  H      0.417864   -2.390454   -1.048734
  H     -0.044142   -1.813326   -2.534723
  N     -1.891910   -1.047996    1.694643
  H     -1.330659   -0.949363    2.536268
  H     -2.783357   -1.493001    1.857453
  H     -2.044637   -0.114346    1.297242
  H     -1.357091   -1.599337    1.018653

 Total Charge           Charge          ....    0
 Multiplicity           Mult            ....    1
 Number of Electrons    NEL             ....  240
 Basis Dimension        Dim             ....  608

ORBITAL ENERGIES
----------------

  NO   OCC          E(Eh)            E(eV)
   0   2.0000     -88.267248     -2401.8739
   1   2.0000     -88.265931     -2401.8381
   2   2.0000     -88.256286     -2401.5756
   3   2.0000     -88.251775     -2401.4529
   4   2.0000     -18.787297      -511.2283
   5   2.0000     -18.786583      -511.2089
   6   2.0000     -18.783312      -511.1199
   7   2.0000     -18.783127      -511.1149
   8   2.0000     -18.745478      -510.0904
   9   2.0000     -18.740316      -509.9499
  10   2.0000     -18.734365      -509.7880
  11   2.0000     -18.733755      -509.7714
  12   2.0000     -18.733722      -509.7705
  13   2.0000     -18.733118      -509.7540
  14   2.0000     -18.731671      -509.7147
  15   2.0000     -18.730434      -509.6810
  16   2.0000     -18.725882      -509.5572
  17   2.0000     -18.723776      -509.4999
  18   2.0000     -18.720124      -509.4005
  19   2.0000     -18.718269      -509.3500
  20   2.0000     -14.069164      -382.8414
  21   2.0000     -14.067808      -382.8045
  22   2.0000     -14.067443      -382.7946
  23   2.0000     -14.057096      -382.5130
  24   2.0000      -7.928589      -215.7479
  25   2.0000      -7.927324      -215.7134
  26   2.0000      -7.917978      -215.4591
  27   2.0000      -7.913549      -215.3386
  28   2.0000      -5.959272      -162.1600
  29   2.0000      -5.957979      -162.1249
  30   2.0000      -5.956083      -162.0733
  31   2.0000      -5.955824      -162.0662
  32   2.0000      -5.954759      -162.0372
  33   2.0000      -5.954646      -162.0342
  34   2.0000      -5.949153      -161.8847
  35   2.0000      -5.945516      -161.7857
  36   2.0000      -5.944711      -161.7638
  37   2.0000      -5.944572      -161.7600
  38   2.0000      -5.941023      -161.6634
  39   2.0000      -5.940176      -161.6404
  40   2.0000      -1.091015       -29.6880
  41   2.0000      -1.089930       -29.6585
  42   2.0000      -1.080837       -29.4111
  43   2.0000      -1.076792       -29.3010
  44   2.0000      -0.962693       -26.1962
  45   2.0000      -0.961258       -26.1572
  46   2.0000      -0.953109       -25.9354
  47   2.0000      -0.951640       -25.8954
  48   2.0000      -0.937722       -25.5167
  49   2.0000      -0.934207       -25.4211
  50   2.0000      -0.930423       -25.3181
  51   2.0000      -0.929726       -25.2991
  52   2.0000      -0.927070       -25.2269
  53   2.0000      -0.923640       -25.1335
  54   2.0000      -0.922646       -25.1065
  55   2.0000      -0.918308       -24.9884
  56   2.0000      -0.897146       -24.4126
  57   2.0000      -0.895210       -24.3599
  58   2.0000      -0.894642       -24.3444
  59   2.0000      -0.885914       -24.1069
  60   2.0000      -0.594739       -16.1837
  61   2.0000      -0.592417       -16.1205
  62   2.0000      -0.581057       -15.8114
  63   2.0000      -0.577062       -15.7027
  64   2.0000      -0.524108       -14.2617
  65   2.0000      -0.520061       -14.1516
  66   2.0000      -0.518092       -14.0980
  67   2.0000      -0.516173       -14.0458
  68   2.0000      -0.509993       -13.8776
  69   2.0000      -0.509016       -13.8510
  70   2.0000      -0.507363       -13.8061
  71   2.0000      -0.504115       -13.7177
  72   2.0000      -0.503381       -13.6977
  73   2.0000      -0.502621       -13.6770
  74   2.0000      -0.500806       -13.6276
  75   2.0000      -0.492598       -13.4043
  76   2.0000      -0.486493       -13.2382
  77   2.0000      -0.479666       -13.0524
  78   2.0000      -0.469393       -12.7728
  79   2.0000      -0.464838       -12.6489
  80   2.0000      -0.444616       -12.0986
  81   2.0000      -0.438479       -11.9316
  82   2.0000      -0.438074       -11.9206
  83   2.0000      -0.435446       -11.8491
  84   2.0000      -0.434954       -11.8357
  85   2.0000      -0.430869       -11.7246
  86   2.0000      -0.420465       -11.4414
  87   2.0000      -0.414738       -11.2856
  88   2.0000      -0.393565       -10.7095
  89   2.0000      -0.391757       -10.6603
  90   2.0000      -0.389998       -10.6124
  91   2.0000      -0.387294       -10.5388
  92   2.0000      -0.332065        -9.0360
  93   2.0000      -0.330558        -8.9949
  94   2.0000      -0.325134        -8.8473
  95   2.0000      -0.323386        -8.7998
  96   2.0000      -0.321724        -8.7545
  97   2.0000      -0.321364        -8.7447
  98   2.0000      -0.319415        -8.6917
  99   2.0000      -0.316087        -8.6012
 100   2.0000      -0.311772        -8.4837
 101   2.0000      -0.310181        -8.4404
 102   2.0000      -0.308661        -8.3991
 103   2.0000      -0.306751        -8.3471
 104   2.0000      -0.305591        -8.3156
 105   2.0000      -0.303428        -8.2567
 106   2.0000      -0.300548        -8.1783
 107   2.0000      -0.296086        -8.0569
 108   2.0000      -0.275458        -7.4956
 109   2.0000      -0.271358        -7.3840
 110   2.0000      -0.269936        -7.3453
 111   2.0000      -0.264805        -7.2057
 112   2.0000      -0.252925        -6.8824
 113   2.0000      -0.252671        -6.8755
 114   2.0000      -0.244955        -6.6656
 115   2.0000      -0.243025        -6.6130
 116   2.0000      -0.242655        -6.6030
 117   2.0000      -0.241639        -6.5753
 118   2.0000      -0.230503        -6.2723
 119   2.0000      -0.225620        -6.1394
 120   0.0000      -0.015140        -0.4120
 121   0.0000       0.004077         0.1109
 122   0.0000       0.005987         0.1629
 123   0.0000       0.007745         0.2107
 124   0.0000       0.027407         0.7458

MULLIKEN ATOMIC CHARGES
-----------------------
   0 S :    1.090255
   1 O :   -0.508658
   2 O :   -0.515741
   3 O :   -0.702805
   4 O :   -0.700250
   5 H :    0.460244
   6 S :    1.210964
   7 O :   -0.598767
   8 O :   -0.593874
   9 O :   -0.665832
  10 O :   -0.617575
  11 H :    0.454922
  12 S :    1.122402
  13 O :   -0.534556
  14 O :   -0.515379
  15 O :   -0.715379
  16 O :   -0.697383
  17 H :    0.458060
  18 S :    1.214163
  19 O :   -0.657357
  20 O :   -0.603860
  21 O :   -0.606741
  22 O :   -0.610137
  23 H :    0.452749
  24 N :   -0.749160
  25 H :    0.383450
  26 H :    0.401938
  27 H :    0.385599
  28 H :    0.408254
  29 N :   -0.781484
  30 H :    0.391145
  31 H :    0.394740
  32 H :    0.384787
  33 H :    0.472453
  34 N :   -0.811508
  35 H :    0.503777
  36 H :    0.377573
  37 H :    0.408542
  38 H :    0.379455
  39 N :   -0.756736
  40 H :    0.402815
  41 H :    0.384547
  42 H :    0.402569
  43 H :    0.397776
Sum of atomic charges:   -0.0000000

LOEWDIN ATOMIC CHARGES
----------------------
   0 S :    1.865091
   1 O :   -0.748501
   2 O :   -0.751177
   3 O :   -0.938882
   4 O :   -0.750298
   5 H :    0.365301
   6 S :    1.868043
   7 O :   -0.824642
   8 O :   -0.804726
   9 O :   -0.835219
  10 O :   -0.682794
  11 H :    0.366939
  12 S :    1.869894
  13 O :   -0.758743
  14 O :   -0.743969
  15 O :   -0.943375
  16 O :   -0.741743
  17 H :    0.364232
  18 S :    1.867975
  19 O :   -0.850647
  20 O :   -0.825629
  21 O :   -0.797616
  22 O :   -0.680045
  23 H :    0.366649
  24 N :   -0.368066
  25 H :    0.308312
  26 H :    0.324228
  27 H :    0.337483
  28 H :    0.342792
  29 N :   -0.385096
  30 H :    0.320501
  31 H :    0.329515
  32 H :    0.307698
  33 H :    0.352116
  34 N :   -0.380556
  35 H :    0.355735
  36 H :    0.301178
  37 H :    0.338120
  38 H :    0.314573
  39 N :   -0.368135
  40 H :    0.325146
  41 H :    0.308853
  42 H :    0.339294
  43 H :    0.340191

  Mayer bond orders larger than 0.100000
B(  0-S ,  1-O ) :   1.7111 B(  0-S ,  2-O ) :   1.7366 B(  0-S ,  3-O ) :   1.4062
B(  0-S ,  4-O ) :   0.9108 B(  4-O ,  5-H ) :   0.7295 B(  6-S ,  7-O ) :   1.5127
B(  6-S ,  8-O ) :   1.6073 B(  6-S ,  9-O ) :   1.4486 B(  6-S , 10-O ) :   1.0703
B(  7-O , 28-H ) :   0.1083 B(  9-O , 37-H ) :   0.1379 B(  9-O , 43-H ) :   0.1087
B( 10-O , 11-H ) :   0.7329 B( 12-S , 13-O ) :   1.6807 B( 12-S , 14-O ) :   1.7149
B( 12-S , 15-O ) :   1.4109 B( 12-S , 16-O ) :   0.9311 B( 16-O , 17-H ) :   0.7329
B( 18-S , 19-O ) :   1.4108 B( 18-S , 20-O ) :   1.5108 B( 18-S , 21-O ) :   1.6230
B( 18-S , 22-O ) :   1.0871 B( 19-O , 27-H ) :   0.1204 B( 19-O , 31-H ) :   0.1121
B( 20-O , 42-H ) :   0.1100 B( 22-O , 23-H ) :   0.7333 B( 24-N , 25-H ) :   0.8203
B( 24-N , 26-H ) :   0.7805 B( 24-N , 27-H ) :   0.7402 B( 24-N , 28-H ) :   0.7364
B( 29-N , 30-H ) :   0.7640 B( 29-N , 31-H ) :   0.7373 B( 29-N , 32-H ) :   0.8082
B( 29-N , 33-H ) :   0.7693 B( 34-N , 35-H ) :   0.7457 B( 34-N , 36-H ) :   0.8182
B( 34-N , 37-H ) :   0.7115 B( 34-N , 38-H ) :   0.7879 B( 39-N , 40-H ) :   0.7759
B( 39-N , 41-H ) :   0.8217 B( 39-N , 42-H ) :   0.7327 B( 39-N , 43-H ) :   0.7447

Dispersion correction           -0.131191029
FINAL SINGLE POINT ENERGY     -3026.626485294094
Dispersion correction            ... done

DIPOLE MOMENT
-------------
                                X             Y             Z
Electronic contribution:     -0.53853       0.85235       1.29079
Nuclear contribution   :      1.22105      -1.44116      -1.50783
                        -----------------------------------------
Total Dipole Moment    :      0.68252      -0.58881      -0.21704
                        -----------------------------------------
Magnitude (a.u.)       :      0.92716
Magnitude (Debye)      :      2.35666

Rotational constants in cm-1:     0.005334     0.005220     0.004975
Rotational constants in MHz :   159.917366   156.482467   149.156837

                             ****ORCA TERMINATED NORMALLY****
TOTAL RUN TIME: 0 days 0 hours 4 minutes 34 seconds 691 msec
