                         Program Version 5.0.3 -  RELEASE  -
|  1> ! B97-3c ENGRAD
|  2> %pal nprocs 1
|  3>     end
|  4> %Maxcore 3000.00
|  5> * xyzfile 0 1 4sa4am-44_10_709.xyz
|  6>
|  7>
|  8>                          ****END OF INPUT****

CARTESIAN COORDINATES (ANGSTROEM)
---------------------------------
  S      0.586560    0.860424   -3.689336
  O      0.435476    1.778171   -2.560554
  O      1.765822    0.028012   -3.565211
  O     -0.643333    0.142685   -3.964523
  O      0.811041    1.770666   -5.001650
  H      1.744041    2.001884   -5.063974
  S      0.356689    2.675352    0.608831
  O      1.738542    2.228973    0.773753
  O     -0.512731    1.558085    0.204540
  O     -0.167858    3.396834    1.740540
  O      0.334969    3.696061   -0.612776
  H      0.476915    3.189355   -1.439472
  S     -1.988351   -1.811743    0.212300
  O     -0.697632   -1.703309   -0.446987
  O     -2.033519   -2.936012    1.135503
  O     -2.507897   -0.573020    0.738066
  O     -3.053140   -2.155136   -0.979183
  H     -2.892937   -3.053137   -1.289945
  S      1.957748   -0.882305    2.417792
  O      2.756225   -1.460388    1.339220
  O      0.583957   -0.631672    1.938373
  O      1.979260   -1.658491    3.628880
  O      2.551880    0.542519    2.778498
  H      2.331197    1.205259    2.081999
  N     -2.123314    0.699408   -1.828627
  H     -2.611372   -0.113063   -1.468705
  H     -1.451184    1.024380   -1.114990
  H     -1.581642    0.441276   -2.680548
  H     -2.763833    1.447761   -2.044293
  N     -1.286802    1.052965    2.694440
  H     -1.980194    0.789521    1.997568
  H     -0.998591    2.024517    2.535579
  H     -1.616519    0.893064    3.632627
  H     -0.462722    0.445909    2.479530
  N      0.553155   -3.333300    1.732319
  H     -0.465210   -3.158056    1.609339
  H      1.033847   -2.792671    1.016534
  H      0.867953   -2.963309    2.630967
  H      0.762878   -4.316083    1.645068
  N      1.652232   -0.077837   -0.777118
  H      0.693507   -0.338728   -0.550400
  H      1.767593    0.900806   -0.510423
  H      2.277868   -0.646027   -0.203911
  H      1.819427   -0.189598   -1.779638

 Total Charge           Charge          ....    0
 Multiplicity           Mult            ....    1
 Number of Electrons    NEL             ....  240
 Basis Dimension        Dim             ....  608

ORBITAL ENERGIES
----------------

  NO   OCC          E(Eh)            E(eV)
   0   2.0000     -88.280613     -2402.2376
   1   2.0000     -88.268238     -2401.9009
   2   2.0000     -88.266955     -2401.8660
   3   2.0000     -88.265127     -2401.8162
   4   2.0000     -18.805786      -511.7315
   5   2.0000     -18.785646      -511.1834
   6   2.0000     -18.775108      -510.8967
   7   2.0000     -18.773807      -510.8613
   8   2.0000     -18.753240      -510.3016
   9   2.0000     -18.750368      -510.2235
  10   2.0000     -18.744890      -510.0744
  11   2.0000     -18.741077      -509.9706
  12   2.0000     -18.739046      -509.9154
  13   2.0000     -18.736946      -509.8582
  14   2.0000     -18.734262      -509.7852
  15   2.0000     -18.734211      -509.7838
  16   2.0000     -18.733362      -509.7607
  17   2.0000     -18.732944      -509.7493
  18   2.0000     -18.732844      -509.7466
  19   2.0000     -18.730474      -509.6821
  20   2.0000     -14.098047      -383.6274
  21   2.0000     -14.073255      -382.9527
  22   2.0000     -14.073047      -382.9471
  23   2.0000     -14.046358      -382.2208
  24   2.0000      -7.941790      -216.1071
  25   2.0000      -7.928920      -215.7569
  26   2.0000      -7.927802      -215.7265
  27   2.0000      -7.926333      -215.6865
  28   2.0000      -5.972829      -162.5289
  29   2.0000      -5.969145      -162.4287
  30   2.0000      -5.968848      -162.4206
  31   2.0000      -5.959316      -162.1612
  32   2.0000      -5.958525      -162.1397
  33   2.0000      -5.956760      -162.0917
  34   2.0000      -5.956666      -162.0891
  35   2.0000      -5.956411      -162.0822
  36   2.0000      -5.955594      -162.0600
  37   2.0000      -5.954842      -162.0395
  38   2.0000      -5.954065      -162.0184
  39   2.0000      -5.953664      -162.0074
  40   2.0000      -1.102756       -30.0075
  41   2.0000      -1.089518       -29.6473
  42   2.0000      -1.088087       -29.6084
  43   2.0000      -1.086968       -29.5779
  44   2.0000      -0.975641       -26.5485
  45   2.0000      -0.961010       -26.1504
  46   2.0000      -0.956077       -26.0162
  47   2.0000      -0.953497       -25.9460
  48   2.0000      -0.951813       -25.9002
  49   2.0000      -0.940735       -25.5987
  50   2.0000      -0.935835       -25.4654
  51   2.0000      -0.935111       -25.4457
  52   2.0000      -0.931071       -25.3357
  53   2.0000      -0.927100       -25.2277
  54   2.0000      -0.925070       -25.1724
  55   2.0000      -0.923703       -25.1352
  56   2.0000      -0.922505       -25.1026
  57   2.0000      -0.901796       -24.5391
  58   2.0000      -0.900136       -24.4939
  59   2.0000      -0.879864       -23.9423
  60   2.0000      -0.608122       -16.5478
  61   2.0000      -0.596906       -16.2426
  62   2.0000      -0.592889       -16.1333
  63   2.0000      -0.582391       -15.8477
  64   2.0000      -0.550331       -14.9753
  65   2.0000      -0.539623       -14.6839
  66   2.0000      -0.532911       -14.5012
  67   2.0000      -0.530234       -14.4284
  68   2.0000      -0.528003       -14.3677
  69   2.0000      -0.524256       -14.2657
  70   2.0000      -0.519044       -14.1239
  71   2.0000      -0.516005       -14.0412
  72   2.0000      -0.511674       -13.9233
  73   2.0000      -0.505486       -13.7550
  74   2.0000      -0.505136       -13.7455
  75   2.0000      -0.498554       -13.5663
  76   2.0000      -0.490927       -13.3588
  77   2.0000      -0.484671       -13.1886
  78   2.0000      -0.475335       -12.9345
  79   2.0000      -0.468377       -12.7452
  80   2.0000      -0.453392       -12.3374
  81   2.0000      -0.446534       -12.1508
  82   2.0000      -0.441415       -12.0115
  83   2.0000      -0.439333       -11.9548
  84   2.0000      -0.435349       -11.8465
  85   2.0000      -0.433045       -11.7838
  86   2.0000      -0.430970       -11.7273
  87   2.0000      -0.427898       -11.6437
  88   2.0000      -0.410737       -11.1767
  89   2.0000      -0.389756       -10.6058
  90   2.0000      -0.383481       -10.4351
  91   2.0000      -0.377185       -10.2637
  92   2.0000      -0.347216        -9.4482
  93   2.0000      -0.335031        -9.1166
  94   2.0000      -0.331516        -9.0210
  95   2.0000      -0.330095        -8.9823
  96   2.0000      -0.329279        -8.9601
  97   2.0000      -0.328941        -8.9509
  98   2.0000      -0.327408        -8.9092
  99   2.0000      -0.323719        -8.8088
 100   2.0000      -0.317673        -8.6443
 101   2.0000      -0.315064        -8.5733
 102   2.0000      -0.311023        -8.4634
 103   2.0000      -0.310559        -8.4507
 104   2.0000      -0.309501        -8.4219
 105   2.0000      -0.307611        -8.3705
 106   2.0000      -0.305187        -8.3046
 107   2.0000      -0.303875        -8.2688
 108   2.0000      -0.288500        -7.8505
 109   2.0000      -0.272518        -7.4156
 110   2.0000      -0.270566        -7.3625
 111   2.0000      -0.268613        -7.3093
 112   2.0000      -0.266880        -7.2622
 113   2.0000      -0.254208        -6.9173
 114   2.0000      -0.252162        -6.8617
 115   2.0000      -0.251019        -6.8306
 116   2.0000      -0.249557        -6.7908
 117   2.0000      -0.239279        -6.5111
 118   2.0000      -0.237276        -6.4566
 119   2.0000      -0.234933        -6.3928
 120   0.0000      -0.026449        -0.7197
 121   0.0000      -0.008329        -0.2267
 122   0.0000       0.001060         0.0289
 123   0.0000       0.003798         0.1034
 124   0.0000       0.015003         0.4082

MULLIKEN ATOMIC CHARGES
-----------------------
   0 S :    1.144907
   1 O :   -0.603746
   2 O :   -0.573831
   3 O :   -0.574927
   4 O :   -0.624443
   5 H :    0.457978
   6 S :    1.132951
   7 O :   -0.624025
   8 O :   -0.625848
   9 O :   -0.555457
  10 O :   -0.594412
  11 H :    0.449994
  12 S :    1.099718
  13 O :   -0.574696
  14 O :   -0.600248
  15 O :   -0.562927
  16 O :   -0.670227
  17 H :    0.460770
  18 S :    0.996605
  19 O :   -0.572436
  20 O :   -0.629972
  21 O :   -0.500168
  22 O :   -0.588704
  23 H :    0.446845
  24 N :   -0.788864
  25 H :    0.385614
  26 H :    0.447902
  27 H :    0.397906
  28 H :    0.373867
  29 N :   -0.837275
  30 H :    0.416426
  31 H :    0.402539
  32 H :    0.377824
  33 H :    0.454397
  34 N :   -0.785780
  35 H :    0.396931
  36 H :    0.408098
  37 H :    0.421787
  38 H :    0.380135
  39 N :   -0.825781
  40 H :    0.459097
  41 H :    0.401465
  42 H :    0.395786
  43 H :    0.404225
Sum of atomic charges:    0.0000000

LOEWDIN ATOMIC CHARGES
----------------------
   0 S :    1.867800
   1 O :   -0.844271
   2 O :   -0.783957
   3 O :   -0.787787
   4 O :   -0.681997
   5 H :    0.369199
   6 S :    1.887657
   7 O :   -0.814431
   8 O :   -0.910925
   9 O :   -0.756537
  10 O :   -0.689296
  11 H :    0.377343
  12 S :    1.864966
  13 O :   -0.819966
  14 O :   -0.800414
  15 O :   -0.796654
  16 O :   -0.724759
  17 H :    0.369701
  18 S :    1.860418
  19 O :   -0.831582
  20 O :   -0.925511
  21 O :   -0.743045
  22 O :   -0.702238
  23 H :    0.381352
  24 N :   -0.402176
  25 H :    0.314057
  26 H :    0.346201
  27 H :    0.343907
  28 H :    0.302638
  29 N :   -0.414021
  30 H :    0.334674
  31 H :    0.334516
  32 H :    0.293862
  33 H :    0.353729
  34 N :   -0.401802
  35 H :    0.343808
  36 H :    0.333863
  37 H :    0.331900
  38 H :    0.300417
  39 N :   -0.394230
  40 H :    0.332025
  41 H :    0.330634
  42 H :    0.325375
  43 H :    0.325554

  Mayer bond orders larger than 0.100000
B(  0-S ,  1-O ) :   1.4813 B(  0-S ,  2-O ) :   1.6257 B(  0-S ,  3-O ) :   1.5689
B(  0-S ,  4-O ) :   1.0622 B(  2-O , 43-H ) :   0.1325 B(  3-O , 27-H ) :   0.2004
B(  4-O ,  5-H ) :   0.7304 B(  6-S ,  7-O ) :   1.4213 B(  6-S ,  8-O ) :   1.4138
B(  6-S ,  9-O ) :   1.6751 B(  6-S , 10-O ) :   1.1019 B(  7-O , 23-H ) :   0.1283
B(  7-O , 41-H ) :   0.1086 B(  9-O , 31-H ) :   0.1372 B( 10-O , 11-H ) :   0.6618
B( 12-S , 13-O ) :   1.5701 B( 12-S , 14-O ) :   1.5278 B( 12-S , 15-O ) :   1.6484
B( 12-S , 16-O ) :   0.9293 B( 14-O , 35-H ) :   0.2014 B( 16-O , 17-H ) :   0.7279
B( 18-S , 19-O ) :   1.5614 B( 18-S , 20-O ) :   1.3489 B( 18-S , 21-O ) :   1.7378
B( 18-S , 22-O ) :   1.0752 B( 19-O , 42-H ) :   0.1182 B( 20-O , 33-H ) :   0.1256
B( 22-O , 23-H ) :   0.6459 B( 24-N , 25-H ) :   0.7731 B( 24-N , 26-H ) :   0.7070
B( 24-N , 27-H ) :   0.6536 B( 24-N , 28-H ) :   0.8415 B( 29-N , 30-H ) :   0.7688
B( 29-N , 31-H ) :   0.7050 B( 29-N , 32-H ) :   0.8280 B( 29-N , 33-H ) :   0.6694
B( 34-N , 35-H ) :   0.6654 B( 34-N , 36-H ) :   0.7811 B( 34-N , 37-H ) :   0.7427
B( 34-N , 38-H ) :   0.8272 B( 39-N , 40-H ) :   0.7720 B( 39-N , 41-H ) :   0.7302
B( 39-N , 42-H ) :   0.7342 B( 39-N , 43-H ) :   0.7096

Dispersion correction           -0.130747762
FINAL SINGLE POINT ENERGY     -3026.626818443669
Dispersion correction            ... done

DIPOLE MOMENT
-------------
                                X             Y             Z
Electronic contribution:      3.44815       3.79942      -2.57165
Nuclear contribution   :     -5.42151      -5.64766       2.73099
                        -----------------------------------------
Total Dipole Moment    :     -1.97336      -1.84824       0.15934
                        -----------------------------------------
Magnitude (a.u.)       :      2.70842
Magnitude (Debye)      :      6.88426

Rotational constants in cm-1:     0.006572     0.004706     0.003924
Rotational constants in MHz :   197.023913   141.096378   117.652412

                             ****ORCA TERMINATED NORMALLY****
TOTAL RUN TIME: 0 days 0 hours 4 minutes 31 seconds 169 msec
