                         Program Version 5.0.3 -  RELEASE  -
|  1> ! B97-3c ENGRAD
|  2> %pal nprocs 1
|  3>     end
|  4> %Maxcore 3000.00
|  5> * xyzfile 0 1 4sa4am-44_10_22.xyz
|  6>
|  7>
|  8>                          ****END OF INPUT****

CARTESIAN COORDINATES (ANGSTROEM)
---------------------------------
  S      3.479503   -2.764742   -0.913204
  O      3.121447   -1.498392   -0.282019
  O      2.946531   -3.901718   -0.175909
  O      3.181832   -2.771084   -2.329870
  O      5.081688   -2.897284   -0.840278
  H      5.329800   -3.255557    0.018906
  S     -3.493873    2.724865    0.974089
  O     -3.102612    1.550811    0.200476
  O     -3.487600    2.452366    2.404377
  O     -2.755448    3.906580    0.581807
  O     -5.020271    3.061026    0.590863
  H     -5.607204    2.514541    1.124187
  S      1.610248    0.929666    0.938141
  O      1.000183   -0.270819    1.508050
  O      1.475320    1.010283   -0.514093
  O      1.142605    2.138600    1.594435
  O      3.167349    0.825626    1.236708
  H      3.471065    0.022170    0.765295
  S     -1.591642   -0.879491   -1.015437
  O     -1.462440   -0.984269    0.437281
  O     -0.981913    0.330034   -1.562206
  O     -1.119544   -2.077410   -1.688576
  O     -3.147413   -0.772308   -1.319772
  H     -3.444112    0.050843   -0.878857
  N      1.333523   -0.831504   -2.526790
  H      1.344516   -0.245054   -3.346450
  H      2.101826   -1.525942   -2.545415
  H      1.442864   -0.238014   -1.687640
  H      0.437027   -1.313196   -2.453553
  N     -0.582551    2.853836   -0.595341
  H     -0.204200    3.326508   -1.401135
  H     -0.830803    1.885821   -0.859559
  H      0.119414    2.805683    0.143532
  H     -1.430887    3.329783   -0.239202
  N      0.576770   -2.774769    0.516949
  H      0.831606   -1.804256    0.768422
  H      0.048289   -3.172227    1.278297
  H     -0.009312   -2.738234   -0.318149
  H      1.443294   -3.305421    0.329155
  N     -1.285823    0.865291    2.431667
  H     -0.467368    1.460596    2.297653
  H     -1.128278    0.253994    3.218075
  H     -2.136580    1.439172    2.551523
  H     -1.396829    0.283597    1.583562

 Total Charge           Charge          ....    0
 Multiplicity           Mult            ....    1
 Number of Electrons    NEL             ....  240
 Basis Dimension        Dim             ....  608

ORBITAL ENERGIES
----------------

  NO   OCC          E(Eh)            E(eV)
   0   2.0000     -88.272206     -2402.0089
   1   2.0000     -88.272177     -2402.0081
   2   2.0000     -88.270866     -2401.9724
   3   2.0000     -88.270852     -2401.9720
   4   2.0000     -18.791093      -511.3316
   5   2.0000     -18.791056      -511.3306
   6   2.0000     -18.778803      -510.9972
   7   2.0000     -18.778779      -510.9966
   8   2.0000     -18.750877      -510.2373
   9   2.0000     -18.750826      -510.2359
  10   2.0000     -18.741377      -509.9788
  11   2.0000     -18.741374      -509.9787
  12   2.0000     -18.738747      -509.9072
  13   2.0000     -18.738724      -509.9066
  14   2.0000     -18.736457      -509.8449
  15   2.0000     -18.736435      -509.8443
  16   2.0000     -18.735019      -509.8058
  17   2.0000     -18.734998      -509.8052
  18   2.0000     -18.734697      -509.7970
  19   2.0000     -18.734663      -509.7961
  20   2.0000     -14.069287      -382.8448
  21   2.0000     -14.069174      -382.8417
  22   2.0000     -14.067977      -382.8091
  23   2.0000     -14.067899      -382.8070
  24   2.0000      -7.932974      -215.8672
  25   2.0000      -7.932945      -215.8664
  26   2.0000      -7.931841      -215.8364
  27   2.0000      -7.931833      -215.8361
  28   2.0000      -5.963411      -162.2727
  29   2.0000      -5.963382      -162.2719
  30   2.0000      -5.962610      -162.2509
  31   2.0000      -5.962601      -162.2506
  32   2.0000      -5.960658      -162.1977
  33   2.0000      -5.960630      -162.1970
  34   2.0000      -5.960465      -162.1925
  35   2.0000      -5.960436      -162.1917
  36   2.0000      -5.959450      -162.1649
  37   2.0000      -5.959443      -162.1647
  38   2.0000      -5.958974      -162.1519
  39   2.0000      -5.958966      -162.1517
  40   2.0000      -1.094501       -29.7829
  41   2.0000      -1.093345       -29.7514
  42   2.0000      -1.092302       -29.7230
  43   2.0000      -1.092093       -29.7174
  44   2.0000      -0.966534       -26.3007
  45   2.0000      -0.966326       -26.2951
  46   2.0000      -0.961508       -26.1640
  47   2.0000      -0.960801       -26.1447
  48   2.0000      -0.939752       -25.5719
  49   2.0000      -0.939040       -25.5526
  50   2.0000      -0.937251       -25.5039
  51   2.0000      -0.935402       -25.4536
  52   2.0000      -0.933718       -25.4078
  53   2.0000      -0.927957       -25.2510
  54   2.0000      -0.927876       -25.2488
  55   2.0000      -0.927595       -25.2411
  56   2.0000      -0.900101       -24.4930
  57   2.0000      -0.899790       -24.4845
  58   2.0000      -0.898173       -24.4405
  59   2.0000      -0.894814       -24.3491
  60   2.0000      -0.600738       -16.3469
  61   2.0000      -0.599822       -16.3220
  62   2.0000      -0.592564       -16.1245
  63   2.0000      -0.588090       -16.0028
  64   2.0000      -0.526555       -14.3283
  65   2.0000      -0.525439       -14.2979
  66   2.0000      -0.521235       -14.1835
  67   2.0000      -0.520577       -14.1656
  68   2.0000      -0.519875       -14.1465
  69   2.0000      -0.518911       -14.1203
  70   2.0000      -0.517634       -14.0856
  71   2.0000      -0.513990       -13.9864
  72   2.0000      -0.513456       -13.9718
  73   2.0000      -0.510825       -13.9003
  74   2.0000      -0.510043       -13.8790
  75   2.0000      -0.505724       -13.7614
  76   2.0000      -0.495054       -13.4711
  77   2.0000      -0.491174       -13.3655
  78   2.0000      -0.479289       -13.0421
  79   2.0000      -0.474191       -12.9034
  80   2.0000      -0.456156       -12.4126
  81   2.0000      -0.448173       -12.1954
  82   2.0000      -0.444212       -12.0876
  83   2.0000      -0.443096       -12.0573
  84   2.0000      -0.435591       -11.8530
  85   2.0000      -0.431197       -11.7335
  86   2.0000      -0.430957       -11.7269
  87   2.0000      -0.428788       -11.6679
  88   2.0000      -0.394801       -10.7431
  89   2.0000      -0.394361       -10.7311
  90   2.0000      -0.387986       -10.5576
  91   2.0000      -0.386367       -10.5136
  92   2.0000      -0.336706        -9.1622
  93   2.0000      -0.335398        -9.1266
  94   2.0000      -0.333654        -9.0792
  95   2.0000      -0.333611        -9.0780
  96   2.0000      -0.329936        -8.9780
  97   2.0000      -0.328562        -8.9406
  98   2.0000      -0.325927        -8.8689
  99   2.0000      -0.322574        -8.7777
 100   2.0000      -0.319086        -8.6828
 101   2.0000      -0.317027        -8.6267
 102   2.0000      -0.316825        -8.6213
 103   2.0000      -0.313349        -8.5267
 104   2.0000      -0.312765        -8.5108
 105   2.0000      -0.312213        -8.4957
 106   2.0000      -0.310476        -8.4485
 107   2.0000      -0.303355        -8.2547
 108   2.0000      -0.280611        -7.6358
 109   2.0000      -0.274436        -7.4678
 110   2.0000      -0.273989        -7.4556
 111   2.0000      -0.268930        -7.3179
 112   2.0000      -0.258718        -7.0401
 113   2.0000      -0.258074        -7.0225
 114   2.0000      -0.257090        -6.9958
 115   2.0000      -0.250448        -6.8150
 116   2.0000      -0.248735        -6.7684
 117   2.0000      -0.239621        -6.5204
 118   2.0000      -0.238439        -6.4883
 119   2.0000      -0.237720        -6.4687
 120   0.0000      -0.019321        -0.5257
 121   0.0000      -0.001973        -0.0537
 122   0.0000       0.005252         0.1429
 123   0.0000       0.009422         0.2564
 124   0.0000       0.014430         0.3927

MULLIKEN ATOMIC CHARGES
-----------------------
   0 S :    1.156660
   1 O :   -0.608335
   2 O :   -0.588728
   3 O :   -0.568800
   4 O :   -0.621065
   5 H :    0.458828
   6 S :    1.156628
   7 O :   -0.608088
   8 O :   -0.588579
   9 O :   -0.569159
  10 O :   -0.621061
  11 H :    0.458900
  12 S :    1.223515
  13 O :   -0.612490
  14 O :   -0.613162
  15 O :   -0.652875
  16 O :   -0.604904
  17 H :    0.449090
  18 S :    1.222562
  19 O :   -0.612293
  20 O :   -0.612760
  21 O :   -0.652838
  22 O :   -0.604809
  23 H :    0.449109
  24 N :   -0.825554
  25 H :    0.371206
  26 H :    0.401680
  27 H :    0.442067
  28 H :    0.401250
  29 N :   -0.824563
  30 H :    0.371113
  31 H :    0.441026
  32 H :    0.400886
  33 H :    0.401444
  34 N :   -0.845227
  35 H :    0.455352
  36 H :    0.373759
  37 H :    0.401980
  38 H :    0.405798
  39 N :   -0.845683
  40 H :    0.402185
  41 H :    0.373957
  42 H :    0.405923
  43 H :    0.456053
Sum of atomic charges:   -0.0000000

LOEWDIN ATOMIC CHARGES
----------------------
   0 S :    1.867597
   1 O :   -0.834185
   2 O :   -0.803043
   3 O :   -0.781942
   4 O :   -0.678464
   5 H :    0.369978
   6 S :    1.867479
   7 O :   -0.834057
   8 O :   -0.802898
   9 O :   -0.782099
  10 O :   -0.678428
  11 H :    0.369920
  12 S :    1.886200
  13 O :   -0.853233
  14 O :   -0.850392
  15 O :   -0.819154
  16 O :   -0.681889
  17 H :    0.376597
  18 S :    1.886211
  19 O :   -0.853677
  20 O :   -0.849831
  21 O :   -0.819214
  22 O :   -0.681863
  23 H :    0.376597
  24 N :   -0.410862
  25 H :    0.301349
  26 H :    0.336882
  27 H :    0.346265
  28 H :    0.327965
  29 N :   -0.410841
  30 H :    0.301277
  31 H :    0.346218
  32 H :    0.327911
  33 H :    0.336928
  34 N :   -0.410804
  35 H :    0.347230
  36 H :    0.303228
  37 H :    0.327807
  38 H :    0.332794
  39 N :   -0.410773
  40 H :    0.327846
  41 H :    0.303367
  42 H :    0.332721
  43 H :    0.347283

  Mayer bond orders larger than 0.100000
B(  0-S ,  1-O ) :   1.4700 B(  0-S ,  2-O ) :   1.5695 B(  0-S ,  3-O ) :   1.5797
B(  0-S ,  4-O ) :   1.0653 B(  2-O , 38-H ) :   0.1753 B(  3-O , 26-H ) :   0.1846
B(  4-O ,  5-H ) :   0.7293 B(  6-S ,  7-O ) :   1.4702 B(  6-S ,  8-O ) :   1.5705
B(  6-S ,  9-O ) :   1.5788 B(  6-S , 10-O ) :   1.0653 B(  8-O , 42-H ) :   0.1748
B(  9-O , 33-H ) :   0.1850 B( 10-O , 11-H ) :   0.7292 B( 12-S , 13-O ) :   1.4696
B( 12-S , 14-O ) :   1.4755 B( 12-S , 15-O ) :   1.5004 B( 12-S , 16-O ) :   1.1239
B( 15-O , 32-H ) :   0.1123 B( 15-O , 40-H ) :   0.1156 B( 16-O , 17-H ) :   0.6696
B( 18-S , 19-O ) :   1.4684 B( 18-S , 20-O ) :   1.4772 B( 18-S , 21-O ) :   1.5004
B( 18-S , 22-O ) :   1.1239 B( 21-O , 28-H ) :   0.1121 B( 21-O , 37-H ) :   0.1161
B( 22-O , 23-H ) :   0.6696 B( 24-N , 25-H ) :   0.8461 B( 24-N , 26-H ) :   0.6651
B( 24-N , 27-H ) :   0.7054 B( 24-N , 28-H ) :   0.7397 B( 29-N , 30-H ) :   0.8462
B( 29-N , 31-H ) :   0.7060 B( 29-N , 32-H ) :   0.7401 B( 29-N , 33-H ) :   0.6651
B( 34-N , 35-H ) :   0.7056 B( 34-N , 36-H ) :   0.8441 B( 34-N , 37-H ) :   0.7365
B( 34-N , 38-H ) :   0.6671 B( 39-N , 40-H ) :   0.7365 B( 39-N , 41-H ) :   0.8439
B( 39-N , 42-H ) :   0.6674 B( 39-N , 43-H ) :   0.7050

Dispersion correction           -0.128557603
FINAL SINGLE POINT ENERGY     -3026.636879239673
Dispersion correction            ... done

DIPOLE MOMENT
-------------
                                X             Y             Z
Electronic contribution:      0.02223       0.05588      -0.08864
Nuclear contribution   :     -0.13209      -0.34563       0.53552
                        -----------------------------------------
Total Dipole Moment    :     -0.10986      -0.28975       0.44688
                        -----------------------------------------
Magnitude (a.u.)       :      0.54380
Magnitude (Debye)      :      1.38224

Rotational constants in cm-1:     0.010945     0.003286     0.002914
Rotational constants in MHz :   328.108832    98.502066    87.363251

                             ****ORCA TERMINATED NORMALLY****
TOTAL RUN TIME: 0 days 0 hours 4 minutes 30 seconds 191 msec
