                         Program Version 5.0.3 -  RELEASE  -
|  1> ! B97-3c ENGRAD
|  2> %pal nprocs 1
|  3>     end
|  4> %Maxcore 3000.00
|  5> * xyzfile 0 1 4sa4am-44_10_100.xyz
|  6>
|  7>
|  8>                          ****END OF INPUT****

CARTESIAN COORDINATES (ANGSTROEM)
---------------------------------
  S     -3.585696   -1.665106    0.615556
  O     -3.965249   -0.415681   -0.019086
  O     -3.578804   -2.794534   -0.304841
  O     -2.372199   -1.590819    1.411575
  O     -4.733594   -1.972547    1.709617
  H     -5.585261   -1.961027    1.259034
  S      2.302637   -0.885421   -0.670839
  O      2.079519    0.478708   -1.167476
  O      1.207204   -1.365868    0.168256
  O      2.642387   -1.792466   -1.745292
  O      3.583518   -0.799936    0.269357
  H      3.378857   -0.137362    0.960994
  S     -1.211581    0.666199   -1.735338
  O     -0.947788   -0.640572   -2.395333
  O     -0.963494    0.596269   -0.301601
  O     -0.494797    1.730462   -2.403578
  O     -2.743954    0.958258   -1.913688
  H     -3.254980    0.435188   -1.231438
  S      1.980319    2.128108    2.779885
  O      1.883823    3.459380    2.203766
  O      0.866498    1.802986    3.657507
  O      2.229988    1.094089    1.790984
  O      3.309516    2.118100    3.691859
  H      3.235574    2.825701    4.342041
  N     -0.295119   -0.190968    2.224778
  H      0.069395    0.534399    2.861819
  H     -1.081034    0.158390    1.682546
  H      0.438597   -0.445424    1.554669
  H     -0.603678   -1.011528    2.726322
  N      1.332836   -0.218474   -3.601235
  H      1.351033   -0.315584   -4.603579
  H      0.380143   -0.424493   -3.207106
  H      1.985567   -0.855148   -3.125212
  H      1.541481    0.727813   -3.301910
  N     -0.930768   -2.702620   -0.656608
  H     -0.875608   -1.891531   -1.296738
  H     -0.283991   -3.421333   -0.937930
  H     -0.692875   -2.354803    0.265850
  H     -1.917665   -3.006410   -0.628191
  N      0.865329    2.656321   -0.185077
  H      0.790111    3.227074   -1.014184
  H     -0.055173    2.302786    0.059644
  H      1.430184    1.815943   -0.406335
  H      1.288793    3.143480    0.616556

 Total Charge           Charge          ....    0
 Multiplicity           Mult            ....    1
 Number of Electrons    NEL             ....  240
 Basis Dimension        Dim             ....  608

ORBITAL ENERGIES
----------------

  NO   OCC          E(Eh)            E(eV)
   0   2.0000     -88.272386     -2402.0137
   1   2.0000     -88.267705     -2401.8864
   2   2.0000     -88.267627     -2401.8842
   3   2.0000     -88.260454     -2401.6891
   4   2.0000     -18.788092      -511.2500
   5   2.0000     -18.780717      -511.0493
   6   2.0000     -18.774080      -510.8687
   7   2.0000     -18.771229      -510.7911
   8   2.0000     -18.751990      -510.2676
   9   2.0000     -18.739496      -509.9276
  10   2.0000     -18.739494      -509.9276
  11   2.0000     -18.735145      -509.8092
  12   2.0000     -18.734947      -509.8038
  13   2.0000     -18.734583      -509.7939
  14   2.0000     -18.734430      -509.7898
  15   2.0000     -18.733351      -509.7604
  16   2.0000     -18.731903      -509.7210
  17   2.0000     -18.729437      -509.6539
  18   2.0000     -18.728289      -509.6227
  19   2.0000     -18.725809      -509.5552
  20   2.0000     -14.085695      -383.2912
  21   2.0000     -14.067500      -382.7961
  22   2.0000     -14.063989      -382.7006
  23   2.0000     -14.063930      -382.6990
  24   2.0000      -7.932840      -215.8635
  25   2.0000      -7.928775      -215.7529
  26   2.0000      -7.928101      -215.7346
  27   2.0000      -7.921224      -215.5475
  28   2.0000      -5.962792      -162.2558
  29   2.0000      -5.960945      -162.2056
  30   2.0000      -5.960451      -162.1921
  31   2.0000      -5.959515      -162.1667
  32   2.0000      -5.958473      -162.1383
  33   2.0000      -5.956615      -162.0877
  34   2.0000      -5.955950      -162.0697
  35   2.0000      -5.955678      -162.0622
  36   2.0000      -5.955534      -162.0583
  37   2.0000      -5.951919      -161.9599
  38   2.0000      -5.948873      -161.8771
  39   2.0000      -5.948430      -161.8650
  40   2.0000      -1.092077       -29.7169
  41   2.0000      -1.090068       -29.6623
  42   2.0000      -1.086468       -29.5643
  43   2.0000      -1.080508       -29.4021
  44   2.0000      -0.963054       -26.2060
  45   2.0000      -0.956238       -26.0205
  46   2.0000      -0.954387       -25.9702
  47   2.0000      -0.952928       -25.9305
  48   2.0000      -0.938256       -25.5313
  49   2.0000      -0.933144       -25.3921
  50   2.0000      -0.931462       -25.3464
  51   2.0000      -0.931037       -25.3348
  52   2.0000      -0.929360       -25.2892
  53   2.0000      -0.927093       -25.2275
  54   2.0000      -0.924067       -25.1451
  55   2.0000      -0.920454       -25.0468
  56   2.0000      -0.910945       -24.7881
  57   2.0000      -0.896785       -24.4028
  58   2.0000      -0.894312       -24.3355
  59   2.0000      -0.892485       -24.2857
  60   2.0000      -0.596258       -16.2250
  61   2.0000      -0.594584       -16.1795
  62   2.0000      -0.585744       -15.9389
  63   2.0000      -0.581666       -15.8279
  64   2.0000      -0.541941       -14.7470
  65   2.0000      -0.528486       -14.3808
  66   2.0000      -0.525277       -14.2935
  67   2.0000      -0.524014       -14.2591
  68   2.0000      -0.519570       -14.1382
  69   2.0000      -0.518211       -14.1012
  70   2.0000      -0.516287       -14.0489
  71   2.0000      -0.513550       -13.9744
  72   2.0000      -0.512325       -13.9411
  73   2.0000      -0.511149       -13.9091
  74   2.0000      -0.505433       -13.7535
  75   2.0000      -0.501466       -13.6456
  76   2.0000      -0.488822       -13.3015
  77   2.0000      -0.481347       -13.0981
  78   2.0000      -0.479202       -13.0398
  79   2.0000      -0.468315       -12.7435
  80   2.0000      -0.447267       -12.1708
  81   2.0000      -0.440734       -11.9930
  82   2.0000      -0.440469       -11.9858
  83   2.0000      -0.435732       -11.8569
  84   2.0000      -0.434224       -11.8158
  85   2.0000      -0.432235       -11.7617
  86   2.0000      -0.428143       -11.6504
  87   2.0000      -0.424082       -11.5398
  88   2.0000      -0.396110       -10.7787
  89   2.0000      -0.385040       -10.4775
  90   2.0000      -0.383252       -10.4288
  91   2.0000      -0.377263       -10.2659
  92   2.0000      -0.334597        -9.1048
  93   2.0000      -0.331002        -9.0070
  94   2.0000      -0.330551        -8.9948
  95   2.0000      -0.327791        -8.9197
  96   2.0000      -0.323776        -8.8104
  97   2.0000      -0.322475        -8.7750
  98   2.0000      -0.319539        -8.6951
  99   2.0000      -0.315879        -8.5955
 100   2.0000      -0.314532        -8.5589
 101   2.0000      -0.312710        -8.5093
 102   2.0000      -0.311017        -8.4632
 103   2.0000      -0.310605        -8.4520
 104   2.0000      -0.308680        -8.3996
 105   2.0000      -0.304440        -8.2842
 106   2.0000      -0.302556        -8.2330
 107   2.0000      -0.300284        -8.1712
 108   2.0000      -0.276518        -7.5244
 109   2.0000      -0.269830        -7.3425
 110   2.0000      -0.267804        -7.2873
 111   2.0000      -0.263820        -7.1789
 112   2.0000      -0.253650        -6.9022
 113   2.0000      -0.253127        -6.8879
 114   2.0000      -0.249626        -6.7927
 115   2.0000      -0.247719        -6.7408
 116   2.0000      -0.244938        -6.6651
 117   2.0000      -0.240071        -6.5327
 118   2.0000      -0.237066        -6.4509
 119   2.0000      -0.228539        -6.2189
 120   0.0000      -0.020810        -0.5663
 121   0.0000      -0.002444        -0.0665
 122   0.0000       0.006092         0.1658
 123   0.0000       0.017350         0.4721
 124   0.0000       0.020350         0.5537

MULLIKEN ATOMIC CHARGES
-----------------------
   0 S :    1.094908
   1 O :   -0.541631
   2 O :   -0.581266
   3 O :   -0.608598
   4 O :   -0.624858
   5 H :    0.455498
   6 S :    1.198977
   7 O :   -0.670995
   8 O :   -0.607947
   9 O :   -0.584971
  10 O :   -0.617345
  11 H :    0.449450
  12 S :    1.242557
  13 O :   -0.741259
  14 O :   -0.611498
  15 O :   -0.571316
  16 O :   -0.569179
  17 H :    0.434533
  18 S :    1.140351
  19 O :   -0.566254
  20 O :   -0.560207
  21 O :   -0.639671
  22 O :   -0.622654
  23 H :    0.459084
  24 N :   -0.800463
  25 H :    0.396694
  26 H :    0.424447
  27 H :    0.439716
  28 H :    0.385077
  29 N :   -0.795412
  30 H :    0.377798
  31 H :    0.392786
  32 H :    0.402683
  33 H :    0.397402
  34 N :   -0.813976
  35 H :    0.425589
  36 H :    0.376719
  37 H :    0.414452
  38 H :    0.408089
  39 N :   -0.838876
  40 H :    0.382795
  41 H :    0.400058
  42 H :    0.461904
  43 H :    0.406812
Sum of atomic charges:   -0.0000000

LOEWDIN ATOMIC CHARGES
----------------------
   0 S :    1.866145
   1 O :   -0.759685
   2 O :   -0.807283
   3 O :   -0.850273
   4 O :   -0.682398
   5 H :    0.367573
   6 S :    1.883532
   7 O :   -0.889300
   8 O :   -0.862132
   9 O :   -0.776052
  10 O :   -0.685003
  11 H :    0.376904
  12 S :    1.892843
  13 O :   -0.903739
  14 O :   -0.866653
  15 O :   -0.784926
  16 O :   -0.697685
  17 H :    0.387527
  18 S :    1.865568
  19 O :   -0.797100
  20 O :   -0.798766
  21 O :   -0.833254
  22 O :   -0.681646
  23 H :    0.369541
  24 N :   -0.382326
  25 H :    0.333465
  26 H :    0.339172
  27 H :    0.340855
  28 H :    0.312948
  29 N :   -0.415926
  30 H :    0.293394
  31 H :    0.350128
  32 H :    0.337615
  33 H :    0.329442
  34 N :   -0.397956
  35 H :    0.341992
  36 H :    0.299891
  37 H :    0.332901
  38 H :    0.336648
  39 N :   -0.402280
  40 H :    0.307430
  41 H :    0.328505
  42 H :    0.349601
  43 H :    0.330765

  Mayer bond orders larger than 0.100000
B(  0-S ,  1-O ) :   1.5592 B(  0-S ,  2-O ) :   1.5675 B(  0-S ,  3-O ) :   1.5844
B(  0-S ,  4-O ) :   1.0737 B(  1-O , 17-H ) :   0.1578 B(  2-O , 38-H ) :   0.1644
B(  4-O ,  5-H ) :   0.7320 B(  6-S ,  7-O ) :   1.4040 B(  6-S ,  8-O ) :   1.5254
B(  6-S ,  9-O ) :   1.6252 B(  6-S , 10-O ) :   1.1303 B(  7-O , 42-H ) :   0.1076
B(  9-O , 32-H ) :   0.1418 B( 10-O , 11-H ) :   0.6696 B( 12-S , 13-O ) :   1.2220
B( 12-S , 14-O ) :   1.4714 B( 12-S , 15-O ) :   1.7092 B( 12-S , 16-O ) :   1.1926
B( 13-O , 31-H ) :   0.2390 B( 13-O , 35-H ) :   0.1480 B( 16-O , 17-H ) :   0.6144
B( 18-S , 19-O ) :   1.5913 B( 18-S , 20-O ) :   1.5695 B( 18-S , 21-O ) :   1.4805
B( 18-S , 22-O ) :   1.0709 B( 19-O , 43-H ) :   0.1614 B( 20-O , 25-H ) :   0.1801
B( 22-O , 23-H ) :   0.7304 B( 24-N , 25-H ) :   0.6751 B( 24-N , 26-H ) :   0.7647
B( 24-N , 27-H ) :   0.7091 B( 24-N , 28-H ) :   0.8296 B( 29-N , 30-H ) :   0.8288
B( 29-N , 31-H ) :   0.6402 B( 29-N , 32-H ) :   0.7075 B( 29-N , 33-H ) :   0.8011
B( 34-N , 35-H ) :   0.7059 B( 34-N , 36-H ) :   0.8313 B( 34-N , 37-H ) :   0.7789
B( 34-N , 38-H ) :   0.6795 B( 39-N , 40-H ) :   0.8290 B( 39-N , 41-H ) :   0.7793
B( 39-N , 42-H ) :   0.6851 B( 39-N , 43-H ) :   0.6780

Dispersion correction           -0.128435617
FINAL SINGLE POINT ENERGY     -3026.630948425810
Dispersion correction            ... done

DIPOLE MOMENT
-------------
                                X             Y             Z
Electronic contribution:     -2.12946       1.07109       4.63422
Nuclear contribution   :      2.80142      -1.21078      -6.12472
                        -----------------------------------------
Total Dipole Moment    :      0.67197      -0.13969      -1.49051
                        -----------------------------------------
Magnitude (a.u.)       :      1.64093
Magnitude (Debye)      :      4.17092

Rotational constants in cm-1:     0.006944     0.004197     0.003489
Rotational constants in MHz :   208.184898   125.816223   104.612135

                             ****ORCA TERMINATED NORMALLY****
TOTAL RUN TIME: 0 days 0 hours 4 minutes 30 seconds 985 msec
