                         Program Version 5.0.3 -  RELEASE  -
|  1> ! B97-3c ENGRAD
|  2> %pal nprocs 1
|  3>     end
|  4> %Maxcore 3000.00
|  5> * xyzfile 0 1 4sa4am-44_10_214.xyz
|  6>
|  7>
|  8>                          ****END OF INPUT****

CARTESIAN COORDINATES (ANGSTROEM)
---------------------------------
  S      3.174157    1.634276    0.128934
  O      2.852408    3.050168    0.130441
  O      3.774770    1.164111    1.362645
  O      2.059707    0.807485   -0.310858
  O      4.278383    1.414641   -1.032004
  H      5.074995    1.896284   -0.781675
  S     -1.207384    0.690107    2.110593
  O     -0.623629    0.186812    0.855927
  O     -2.400575   -0.041375    2.484191
  O     -0.222271    0.848561    3.146998
  O     -1.693693    2.197963    1.772565
  H     -2.359760    2.130248    1.061463
  S      0.272796   -3.284571    0.016163
  O     -0.486530   -3.309364    1.254805
  O     -0.590684   -3.102918   -1.143834
  O      1.403907   -2.377482    0.034220
  O      0.958765   -4.736100   -0.133757
  H      0.278634   -5.412031   -0.043448
  S     -2.143247    1.251056   -1.983616
  O     -0.863480    1.675103   -2.552851
  O     -2.208478   -0.200260   -1.849551
  O     -2.513556    1.983803   -0.799478
  O     -3.271511    1.656915   -3.059458
  H     -3.084952    1.216247   -3.895470
  N      1.890733   -0.663460    2.163043
  H      1.564761   -1.122371    1.305552
  H      2.185460   -1.366969    2.822481
  H      2.669454   -0.035084    1.917736
  H      1.123817   -0.102170    2.552497
  N      0.482589   -0.648820   -1.765932
  H      1.484778   -0.791985   -1.722607
  H      0.179262   -0.370588   -0.833362
  H      0.229937    0.098905   -2.407831
  H      0.001798   -1.521866   -1.985255
  N     -2.636917   -1.756578    0.437242
  H     -1.876033   -2.399373    0.690229
  H     -2.727950   -1.085802    1.217016
  H     -2.366962   -1.232036   -0.401714
  H     -3.494600   -2.259583    0.275406
  N      0.166509    2.804138   -0.210050
  H     -0.106917    2.740350   -1.190708
  H      1.155178    3.082976   -0.117037
  H     -0.452968    3.423877    0.294384
  H      0.069297    1.866761    0.185969

 Total Charge           Charge          ....    0
 Multiplicity           Mult            ....    1
 Number of Electrons    NEL             ....  240
 Basis Dimension        Dim             ....  608

ORBITAL ENERGIES
----------------

  NO   OCC          E(Eh)            E(eV)
   0   2.0000     -88.277536     -2402.1539
   1   2.0000     -88.271040     -2401.9771
   2   2.0000     -88.268131     -2401.8980
   3   2.0000     -88.263292     -2401.7663
   4   2.0000     -18.795261      -511.4450
   5   2.0000     -18.789327      -511.2836
   6   2.0000     -18.785090      -511.1683
   7   2.0000     -18.782427      -511.0958
   8   2.0000     -18.747461      -510.1444
   9   2.0000     -18.745037      -510.0784
  10   2.0000     -18.742290      -510.0036
  11   2.0000     -18.741996      -509.9956
  12   2.0000     -18.741779      -509.9897
  13   2.0000     -18.740066      -509.9431
  14   2.0000     -18.739188      -509.9192
  15   2.0000     -18.736934      -509.8579
  16   2.0000     -18.734314      -509.7866
  17   2.0000     -18.732710      -509.7430
  18   2.0000     -18.732395      -509.7344
  19   2.0000     -18.732052      -509.7251
  20   2.0000     -14.071506      -382.9051
  21   2.0000     -14.068012      -382.8101
  22   2.0000     -14.062015      -382.6469
  23   2.0000     -14.061045      -382.6205
  24   2.0000      -7.938216      -216.0099
  25   2.0000      -7.932027      -215.8414
  26   2.0000      -7.929381      -215.7694
  27   2.0000      -7.924531      -215.6374
  28   2.0000      -5.968997      -162.4247
  29   2.0000      -5.965764      -162.3367
  30   2.0000      -5.965499      -162.3295
  31   2.0000      -5.962708      -162.2535
  32   2.0000      -5.960155      -162.1841
  33   2.0000      -5.959954      -162.1786
  34   2.0000      -5.958949      -162.1513
  35   2.0000      -5.956763      -162.0918
  36   2.0000      -5.956680      -162.0895
  37   2.0000      -5.955391      -162.0544
  38   2.0000      -5.952255      -161.9691
  39   2.0000      -5.951393      -161.9456
  40   2.0000      -1.097913       -29.8757
  41   2.0000      -1.092512       -29.7288
  42   2.0000      -1.091352       -29.6972
  43   2.0000      -1.086291       -29.5595
  44   2.0000      -0.969995       -26.3949
  45   2.0000      -0.964115       -26.2349
  46   2.0000      -0.959445       -26.1078
  47   2.0000      -0.958900       -26.0930
  48   2.0000      -0.942613       -25.6498
  49   2.0000      -0.941692       -25.6247
  50   2.0000      -0.937098       -25.4997
  51   2.0000      -0.936291       -25.4778
  52   2.0000      -0.932349       -25.3705
  53   2.0000      -0.930482       -25.3197
  54   2.0000      -0.928610       -25.2688
  55   2.0000      -0.926506       -25.2115
  56   2.0000      -0.899719       -24.4826
  57   2.0000      -0.897514       -24.4226
  58   2.0000      -0.892626       -24.2896
  59   2.0000      -0.890517       -24.2322
  60   2.0000      -0.604942       -16.4613
  61   2.0000      -0.596116       -16.2212
  62   2.0000      -0.589599       -16.0438
  63   2.0000      -0.588277       -16.0078
  64   2.0000      -0.526083       -14.3154
  65   2.0000      -0.522931       -14.2297
  66   2.0000      -0.519976       -14.1493
  67   2.0000      -0.518796       -14.1171
  68   2.0000      -0.517536       -14.0829
  69   2.0000      -0.516137       -14.0448
  70   2.0000      -0.512800       -13.9540
  71   2.0000      -0.511799       -13.9268
  72   2.0000      -0.506580       -13.7847
  73   2.0000      -0.504116       -13.7177
  74   2.0000      -0.503459       -13.6998
  75   2.0000      -0.500429       -13.6174
  76   2.0000      -0.487930       -13.2772
  77   2.0000      -0.484511       -13.1842
  78   2.0000      -0.479115       -13.0374
  79   2.0000      -0.474597       -12.9144
  80   2.0000      -0.452515       -12.3136
  81   2.0000      -0.445646       -12.1266
  82   2.0000      -0.444018       -12.0823
  83   2.0000      -0.438157       -11.9229
  84   2.0000      -0.435203       -11.8425
  85   2.0000      -0.434042       -11.8109
  86   2.0000      -0.432925       -11.7805
  87   2.0000      -0.429823       -11.6961
  88   2.0000      -0.404417       -11.0047
  89   2.0000      -0.392599       -10.6832
  90   2.0000      -0.389653       -10.6030
  91   2.0000      -0.388451       -10.5703
  92   2.0000      -0.340976        -9.2784
  93   2.0000      -0.339724        -9.2444
  94   2.0000      -0.332591        -9.0502
  95   2.0000      -0.328942        -8.9510
  96   2.0000      -0.328409        -8.9365
  97   2.0000      -0.326693        -8.8898
  98   2.0000      -0.322989        -8.7890
  99   2.0000      -0.321218        -8.7408
 100   2.0000      -0.318336        -8.6624
 101   2.0000      -0.315721        -8.5912
 102   2.0000      -0.313518        -8.5313
 103   2.0000      -0.312527        -8.5043
 104   2.0000      -0.310675        -8.4539
 105   2.0000      -0.309373        -8.4185
 106   2.0000      -0.308911        -8.4059
 107   2.0000      -0.307539        -8.3685
 108   2.0000      -0.279639        -7.6094
 109   2.0000      -0.275566        -7.4985
 110   2.0000      -0.273436        -7.4406
 111   2.0000      -0.269839        -7.3427
 112   2.0000      -0.261948        -7.1280
 113   2.0000      -0.258522        -7.0347
 114   2.0000      -0.254627        -6.9288
 115   2.0000      -0.250326        -6.8117
 116   2.0000      -0.249849        -6.7987
 117   2.0000      -0.245587        -6.6828
 118   2.0000      -0.241298        -6.5660
 119   2.0000      -0.236754        -6.4424
 120   0.0000      -0.015964        -0.4344
 121   0.0000       0.001435         0.0390
 122   0.0000       0.006358         0.1730
 123   0.0000       0.015117         0.4113
 124   0.0000       0.020167         0.5488

MULLIKEN ATOMIC CHARGES
-----------------------
   0 S :    1.166611
   1 O :   -0.567503
   2 O :   -0.569563
   3 O :   -0.644743
   4 O :   -0.630945
   5 H :    0.457053
   6 S :    1.191802
   7 O :   -0.674288
   8 O :   -0.573728
   9 O :   -0.563393
  10 O :   -0.675899
  11 H :    0.465811
  12 S :    1.164002
  13 O :   -0.593251
  14 O :   -0.615844
  15 O :   -0.623720
  16 O :   -0.618364
  17 H :    0.457344
  18 S :    1.187867
  19 O :   -0.679416
  20 O :   -0.607579
  21 O :   -0.558986
  22 O :   -0.615349
  23 H :    0.458087
  24 N :   -0.787660
  25 H :    0.448178
  26 H :    0.374610
  27 H :    0.393065
  28 H :    0.386703
  29 N :   -0.775995
  30 H :    0.409959
  31 H :    0.402022
  32 H :    0.405791
  33 H :    0.411301
  34 N :   -0.799050
  35 H :    0.389984
  36 H :    0.396919
  37 H :    0.426778
  38 H :    0.372162
  39 N :   -0.745840
  40 H :    0.400462
  41 H :    0.402824
  42 H :    0.382432
  43 H :    0.369348
Sum of atomic charges:    0.0000000

LOEWDIN ATOMIC CHARGES
----------------------
   0 S :    1.864220
   1 O :   -0.795565
   2 O :   -0.791574
   3 O :   -0.879187
   4 O :   -0.691373
   5 H :    0.367699
   6 S :    1.882515
   7 O :   -0.917237
   8 O :   -0.779185
   9 O :   -0.753778
  10 O :   -0.757138
  11 H :    0.375651
  12 S :    1.860869
  13 O :   -0.801226
  14 O :   -0.830089
  15 O :   -0.834783
  16 O :   -0.681752
  17 H :    0.367758
  18 S :    1.873828
  19 O :   -0.856696
  20 O :   -0.837735
  21 O :   -0.763218
  22 O :   -0.676341
  23 H :    0.368238
  24 N :   -0.406911
  25 H :    0.337755
  26 H :    0.299143
  27 H :    0.336711
  28 H :    0.333347
  29 N :   -0.353929
  30 H :    0.326039
  31 H :    0.335587
  32 H :    0.323313
  33 H :    0.331035
  34 N :   -0.411622
  35 H :    0.334200
  36 H :    0.338386
  37 H :    0.335460
  38 H :    0.295973
  39 N :   -0.382924
  40 H :    0.329306
  41 H :    0.336054
  42 H :    0.313405
  43 H :    0.335773

  Mayer bond orders larger than 0.100000
B(  0-S ,  1-O ) :   1.5811 B(  0-S ,  2-O ) :   1.5809 B(  0-S ,  3-O ) :   1.5259
B(  0-S ,  4-O ) :   1.0623 B(  1-O , 41-H ) :   0.1707 B(  2-O , 27-H ) :   0.1702
B(  4-O ,  5-H ) :   0.7328 B(  6-S ,  7-O ) :   1.4338 B(  6-S ,  8-O ) :   1.5700
B(  6-S ,  9-O ) :   1.6124 B(  6-S , 10-O ) :   0.9930 B(  8-O , 36-H ) :   0.1715
B(  9-O , 28-H ) :   0.1627 B( 10-O , 11-H ) :   0.6782 B( 12-S , 13-O ) :   1.5372
B( 12-S , 14-O ) :   1.5357 B( 12-S , 15-O ) :   1.5388 B( 12-S , 16-O ) :   1.0673
B( 13-O , 35-H ) :   0.1561 B( 16-O , 17-H ) :   0.7304 B( 18-S , 19-O ) :   1.4416
B( 18-S , 20-O ) :   1.5170 B( 18-S , 21-O ) :   1.6301 B( 18-S , 22-O ) :   1.0993
B( 19-O , 40-H ) :   0.1043 B( 22-O , 23-H ) :   0.7269 B( 24-N , 25-H ) :   0.7390
B( 24-N , 26-H ) :   0.8451 B( 24-N , 27-H ) :   0.6936 B( 24-N , 28-H ) :   0.7068
B( 29-N , 30-H ) :   0.7841 B( 29-N , 31-H ) :   0.8762 B( 29-N , 32-H ) :   0.7384
B( 29-N , 33-H ) :   0.7310 B( 34-N , 35-H ) :   0.7051 B( 34-N , 36-H ) :   0.6878
B( 34-N , 37-H ) :   0.7355 B( 34-N , 38-H ) :   0.8432 B( 39-N , 40-H ) :   0.7358
B( 39-N , 41-H ) :   0.6807 B( 39-N , 42-H ) :   0.8156 B( 39-N , 43-H ) :   0.8067

Dispersion correction           -0.129354152
FINAL SINGLE POINT ENERGY     -3026.641354740172
Dispersion correction            ... done

DIPOLE MOMENT
-------------
                                X             Y             Z
Electronic contribution:      0.39695       1.15083       0.51234
Nuclear contribution   :     -0.77158      -2.13857      -1.77181
                        -----------------------------------------
Total Dipole Moment    :     -0.37464      -0.98774      -1.25947
                        -----------------------------------------
Magnitude (a.u.)       :      1.64385
Magnitude (Debye)      :      4.17834

Rotational constants in cm-1:     0.005519     0.005230     0.004095
Rotational constants in MHz :   165.454951   156.794752   122.776798

                             ****ORCA TERMINATED NORMALLY****
TOTAL RUN TIME: 0 days 0 hours 4 minutes 30 seconds 566 msec
