                         Program Version 5.0.3 -  RELEASE  -
|  1> ! B97-3c ENGRAD
|  2> %pal nprocs 1
|  3>     end
|  4> %Maxcore 3000.00
|  5> * xyzfile 0 1 4sa4am-44_10_593.xyz
|  6>
|  7>
|  8>                          ****END OF INPUT****

CARTESIAN COORDINATES (ANGSTROEM)
---------------------------------
  S     -0.890208    1.532174    2.184172
  O     -1.301622    0.449366    1.269163
  O      0.531603    1.858071    2.019221
  O     -1.762054    2.667088    2.105830
  O     -1.033393    0.916168    3.640779
  H     -0.567826    0.052699    3.624060
  S      1.260706   -2.474342    2.914346
  O      0.529492   -1.209678    2.874684
  O      0.772165   -3.427148    1.936987
  O      2.695226   -2.261144    2.902042
  O      0.965369   -3.131835    4.359822
  H      0.206524   -3.719910    4.283111
  S     -2.200678   -0.675890   -2.651705
  O     -2.813641   -0.711386   -1.342659
  O     -2.057632    0.688508   -3.170685
  O     -0.975710   -1.443300   -2.767201
  O     -3.228278   -1.423804   -3.651623
  H     -4.124036   -1.333672   -3.308945
  S      1.661359    1.179788   -1.145159
  O      0.215374    1.062049   -1.307464
  O      2.228413   -0.009092   -0.503168
  O      2.332748    1.540568   -2.377047
  O      1.915651    2.396678   -0.152661
  H      1.302814    2.318224    0.624436
  N     -0.072064   -1.623993   -0.009991
  H     -0.554163   -0.930346    0.576445
  H      0.806253   -1.198574   -0.305406
  H      0.119361   -2.453570    0.557202
  H     -0.641119   -1.825050   -0.826410
  N      0.496253    0.491681   -4.020179
  H     -0.427017    0.810153   -3.676276
  H      0.581118    0.637220   -5.013632
  H      1.241323    0.978778   -3.485701
  H      0.521916   -0.497024   -3.785133
  N     -2.335591    1.895007   -0.635710
  H     -1.983165    1.183405    0.050231
  H     -1.601050    1.991948   -1.330827
  H     -3.170549    1.533583   -1.075269
  H     -2.488907    2.749940   -0.117406
  N      2.788634    0.293474    2.157968
  H      2.766003    0.234229    1.132040
  H      3.543196    0.882681    2.471703
  H      1.883630    0.679669    2.442955
  H      2.863574   -0.673391    2.533056

 Total Charge           Charge          ....    0
 Multiplicity           Mult            ....    1
 Number of Electrons    NEL             ....  240
 Basis Dimension        Dim             ....  608

ORBITAL ENERGIES
----------------

  NO   OCC          E(Eh)            E(eV)
   0   2.0000     -88.272386     -2402.0137
   1   2.0000     -88.271520     -2401.9902
   2   2.0000     -88.268703     -2401.9135
   3   2.0000     -88.263599     -2401.7746
   4   2.0000     -18.790733      -511.3218
   5   2.0000     -18.782052      -511.0856
   6   2.0000     -18.776203      -510.9265
   7   2.0000     -18.775247      -510.9004
   8   2.0000     -18.744780      -510.0714
   9   2.0000     -18.743699      -510.0420
  10   2.0000     -18.743265      -510.0302
  11   2.0000     -18.742361      -510.0056
  12   2.0000     -18.742336      -510.0049
  13   2.0000     -18.737894      -509.8840
  14   2.0000     -18.737305      -509.8680
  15   2.0000     -18.734372      -509.7882
  16   2.0000     -18.733557      -509.7660
  17   2.0000     -18.731154      -509.7006
  18   2.0000     -18.730940      -509.6948
  19   2.0000     -18.730444      -509.6813
  20   2.0000     -14.083486      -383.2311
  21   2.0000     -14.075087      -383.0026
  22   2.0000     -14.064107      -382.7038
  23   2.0000     -14.046769      -382.2320
  24   2.0000      -7.933575      -215.8835
  25   2.0000      -7.932299      -215.8488
  26   2.0000      -7.929382      -215.7695
  27   2.0000      -7.924489      -215.6363
  28   2.0000      -5.964212      -162.2944
  29   2.0000      -5.962726      -162.2540
  30   2.0000      -5.961105      -162.2099
  31   2.0000      -5.960843      -162.2028
  32   2.0000      -5.960049      -162.1812
  33   2.0000      -5.959730      -162.1725
  34   2.0000      -5.959621      -162.1695
  35   2.0000      -5.957365      -162.1081
  36   2.0000      -5.956739      -162.0911
  37   2.0000      -5.955243      -162.0504
  38   2.0000      -5.952204      -161.9677
  39   2.0000      -5.951548      -161.9499
  40   2.0000      -1.094445       -29.7814
  41   2.0000      -1.092510       -29.7287
  42   2.0000      -1.088525       -29.6203
  43   2.0000      -1.084424       -29.5087
  44   2.0000      -0.965596       -26.2752
  45   2.0000      -0.957906       -26.0659
  46   2.0000      -0.956990       -26.0410
  47   2.0000      -0.954196       -25.9650
  48   2.0000      -0.940972       -25.6052
  49   2.0000      -0.939345       -25.5609
  50   2.0000      -0.935107       -25.4456
  51   2.0000      -0.933311       -25.3967
  52   2.0000      -0.930827       -25.3291
  53   2.0000      -0.930251       -25.3134
  54   2.0000      -0.928026       -25.2529
  55   2.0000      -0.921604       -25.0781
  56   2.0000      -0.910850       -24.7855
  57   2.0000      -0.902268       -24.5520
  58   2.0000      -0.893828       -24.3223
  59   2.0000      -0.878744       -23.9118
  60   2.0000      -0.598590       -16.2885
  61   2.0000      -0.598274       -16.2799
  62   2.0000      -0.590761       -16.0754
  63   2.0000      -0.581474       -15.8227
  64   2.0000      -0.538591       -14.6558
  65   2.0000      -0.529162       -14.3992
  66   2.0000      -0.527061       -14.3421
  67   2.0000      -0.523261       -14.2386
  68   2.0000      -0.522444       -14.2164
  69   2.0000      -0.517926       -14.0935
  70   2.0000      -0.517515       -14.0823
  71   2.0000      -0.511994       -13.9321
  72   2.0000      -0.509635       -13.8679
  73   2.0000      -0.500906       -13.6304
  74   2.0000      -0.499049       -13.5798
  75   2.0000      -0.494317       -13.4511
  76   2.0000      -0.488965       -13.3054
  77   2.0000      -0.487598       -13.2682
  78   2.0000      -0.475225       -12.9315
  79   2.0000      -0.472109       -12.8467
  80   2.0000      -0.446971       -12.1627
  81   2.0000      -0.443698       -12.0736
  82   2.0000      -0.441736       -12.0202
  83   2.0000      -0.438095       -11.9212
  84   2.0000      -0.437315       -11.9000
  85   2.0000      -0.436992       -11.8912
  86   2.0000      -0.430250       -11.7077
  87   2.0000      -0.423319       -11.5191
  88   2.0000      -0.396640       -10.7931
  89   2.0000      -0.388183       -10.5630
  90   2.0000      -0.387381       -10.5412
  91   2.0000      -0.379377       -10.3234
  92   2.0000      -0.337467        -9.1829
  93   2.0000      -0.335013        -9.1162
  94   2.0000      -0.331753        -9.0275
  95   2.0000      -0.328325        -8.9342
  96   2.0000      -0.327460        -8.9107
  97   2.0000      -0.325841        -8.8666
  98   2.0000      -0.321884        -8.7589
  99   2.0000      -0.318646        -8.6708
 100   2.0000      -0.317633        -8.6432
 101   2.0000      -0.314699        -8.5634
 102   2.0000      -0.312347        -8.4994
 103   2.0000      -0.310392        -8.4462
 104   2.0000      -0.308393        -8.3918
 105   2.0000      -0.307336        -8.3630
 106   2.0000      -0.306790        -8.3482
 107   2.0000      -0.303787        -8.2665
 108   2.0000      -0.276390        -7.5210
 109   2.0000      -0.272944        -7.4272
 110   2.0000      -0.269908        -7.3446
 111   2.0000      -0.265636        -7.2283
 112   2.0000      -0.259411        -7.0589
 113   2.0000      -0.256476        -6.9791
 114   2.0000      -0.253025        -6.8852
 115   2.0000      -0.251020        -6.8306
 116   2.0000      -0.248537        -6.7630
 117   2.0000      -0.243523        -6.6266
 118   2.0000      -0.239008        -6.5037
 119   2.0000      -0.234125        -6.3709
 120   0.0000      -0.020236        -0.5506
 121   0.0000      -0.001623        -0.0442
 122   0.0000       0.002066         0.0562
 123   0.0000       0.015910         0.4329
 124   0.0000       0.017969         0.4890

MULLIKEN ATOMIC CHARGES
-----------------------
   0 S :    1.213246
   1 O :   -0.700701
   2 O :   -0.667006
   3 O :   -0.520388
   4 O :   -0.610381
   5 H :    0.447028
   6 S :    1.189515
   7 O :   -0.628552
   8 O :   -0.590974
   9 O :   -0.581000
  10 O :   -0.631292
  11 H :    0.456555
  12 S :    1.275817
  13 O :   -0.613340
  14 O :   -0.649030
  15 O :   -0.654088
  16 O :   -0.623612
  17 H :    0.454312
  18 S :    1.275956
  19 O :   -0.615256
  20 O :   -0.689085
  21 O :   -0.571494
  22 O :   -0.619598
  23 H :    0.431626
  24 N :   -0.830992
  25 H :    0.452909
  26 H :    0.390672
  27 H :    0.403547
  28 H :    0.389947
  29 N :   -0.801851
  30 H :    0.404982
  31 H :    0.378310
  32 H :    0.400836
  33 H :    0.399280
  34 N :   -0.792610
  35 H :    0.438203
  36 H :    0.408736
  37 H :    0.386441
  38 H :    0.395204
  39 N :   -0.806360
  40 H :    0.403771
  41 H :    0.372428
  42 H :    0.429041
  43 H :    0.399246
Sum of atomic charges:   -0.0000000

LOEWDIN ATOMIC CHARGES
----------------------
   0 S :    1.891705
   1 O :   -0.902581
   2 O :   -0.838549
   3 O :   -0.720717
   4 O :   -0.681595
   5 H :    0.377955
   6 S :    1.872240
   7 O :   -0.846248
   8 O :   -0.787841
   9 O :   -0.787108
  10 O :   -0.684121
  11 H :    0.368941
  12 S :    1.868638
  13 O :   -0.788111
  14 O :   -0.860578
  15 O :   -0.828931
  16 O :   -0.686372
  17 H :    0.367641
  18 S :    1.883280
  19 O :   -0.865101
  20 O :   -0.860168
  21 O :   -0.780968
  22 O :   -0.728156
  23 H :    0.381485
  24 N :   -0.403499
  25 H :    0.341868
  26 H :    0.325251
  27 H :    0.327057
  28 H :    0.317658
  29 N :   -0.415612
  30 H :    0.345728
  31 H :    0.296051
  32 H :    0.342609
  33 H :    0.330773
  34 N :   -0.389962
  35 H :    0.356806
  36 H :    0.333163
  37 H :    0.315928
  38 H :    0.309286
  39 N :   -0.415587
  40 H :    0.336497
  41 H :    0.297483
  42 H :    0.341073
  43 H :    0.342693

  Mayer bond orders larger than 0.100000
B(  0-S ,  1-O ) :   1.3544 B(  0-S ,  2-O ) :   1.4110 B(  0-S ,  3-O ) :   1.8101
B(  0-S ,  4-O ) :   1.1247 B(  1-O , 35-H ) :   0.1656 B(  2-O , 23-H ) :   0.1556
B(  4-O ,  5-H ) :   0.6609 B(  6-S ,  7-O ) :   1.4536 B(  6-S ,  8-O ) :   1.6123
B(  6-S ,  9-O ) :   1.5722 B(  6-S , 10-O ) :   1.0514 B(  8-O , 27-H ) :   0.1196
B(  9-O , 43-H ) :   0.1960 B( 10-O , 11-H ) :   0.7307 B( 12-S , 13-O ) :   1.5695
B( 12-S , 14-O ) :   1.4455 B( 12-S , 15-O ) :   1.5229 B( 12-S , 16-O ) :   1.0399
B( 14-O , 30-H ) :   0.1600 B( 16-O , 17-H ) :   0.7303 B( 18-S , 19-O ) :   1.4489
B( 18-S , 20-O ) :   1.3530 B( 18-S , 21-O ) :   1.6213 B( 18-S , 22-O ) :   1.1050
B( 20-O , 26-H ) :   0.1104 B( 20-O , 40-H ) :   0.1431 B( 21-O , 32-H ) :   0.1923
B( 22-O , 23-H ) :   0.6319 B( 24-N , 25-H ) :   0.6970 B( 24-N , 26-H ) :   0.7501
B( 24-N , 27-H ) :   0.7217 B( 24-N , 28-H ) :   0.7675 B( 29-N , 30-H ) :   0.6964
B( 29-N , 31-H ) :   0.8332 B( 29-N , 32-H ) :   0.6529 B( 29-N , 33-H ) :   0.7929
B( 34-N , 35-H ) :   0.6495 B( 34-N , 36-H ) :   0.7662 B( 34-N , 37-H ) :   0.8138
B( 34-N , 38-H ) :   0.8010 B( 39-N , 40-H ) :   0.7132 B( 39-N , 41-H ) :   0.8386
B( 39-N , 42-H ) :   0.7247 B( 39-N , 43-H ) :   0.6629

Dispersion correction           -0.127915314
FINAL SINGLE POINT ENERGY     -3026.642533792987
Dispersion correction            ... done

DIPOLE MOMENT
-------------
                                X             Y             Z
Electronic contribution:     -1.19674      -1.95668       5.96962
Nuclear contribution   :      0.60999       2.57169      -8.22239
                        -----------------------------------------
Total Dipole Moment    :     -0.58675       0.61501      -2.25277
                        -----------------------------------------
Magnitude (a.u.)       :      2.40779
Magnitude (Debye)      :      6.12012

Rotational constants in cm-1:     0.007069     0.003947     0.003833
Rotational constants in MHz :   211.929590   118.326286   114.898316

                             ****ORCA TERMINATED NORMALLY****
TOTAL RUN TIME: 0 days 0 hours 4 minutes 11 seconds 591 msec
