                         Program Version 5.0.3 -  RELEASE  -
|  1> ! B97-3c ENGRAD
|  2> %pal nprocs 1
|  3>     end
|  4> %Maxcore 3000.00
|  5> * xyzfile 0 1 4sa4am-44_10_537.xyz
|  6>
|  7>
|  8>                          ****END OF INPUT****

CARTESIAN COORDINATES (ANGSTROEM)
---------------------------------
  S      1.287341   -2.461340   -1.069310
  O      2.035281   -2.567295    0.173579
  O     -0.073858   -2.979048   -0.920097
  O      1.328595   -1.163665   -1.699034
  O      2.026302   -3.427798   -2.126572
  H      2.170334   -4.289676   -1.720549
  S     -2.525994   -0.511228    0.957977
  O     -1.144331   -0.385333    0.453403
  O     -3.397244   -1.111445   -0.025543
  O     -2.562469   -1.087796    2.278886
  O     -3.020238    1.015618    1.154452
  H     -3.060325    1.403262    0.250387
  S     -1.228927    2.388794   -1.592628
  O     -2.560166    1.853423   -1.382028
  O     -0.559113    2.788976   -0.368801
  O     -0.393398    1.543479   -2.437053
  O     -1.409276    3.722522   -2.483696
  H     -2.076612    4.284231   -2.074661
  S      2.546972    0.606464    1.983471
  O      1.351129   -0.162935    2.350525
  O      2.180218    1.919251    1.428346
  O      3.554196    0.653786    2.989058
  O      3.161823   -0.156319    0.690498
  H      2.875262   -1.093766    0.659818
  N     -0.118553   -2.397931    1.861592
  H     -0.259800   -2.613326    0.870749
  H      0.515934   -1.584449    1.906118
  H     -1.014279   -2.119682    2.267318
  H      0.303511   -3.181331    2.335280
  N     -0.465676    1.739479    2.020980
  H     -1.182778    2.426177    1.832074
  H     -0.612892    0.944004    1.377234
  H      0.471636    2.105118    1.815087
  H     -0.503021    1.390091    2.967263
  N      2.072829    1.474818   -1.240817
  H      1.154247    1.621181   -1.678440
  H      2.260558    0.472375   -1.254244
  H      2.796639    1.978128   -1.728833
  H      2.043550    1.764616   -0.247266
  N     -1.599521   -0.963867   -2.131112
  H     -1.850356   -1.235864   -3.068512
  H     -1.044260   -1.695730   -1.673077
  H     -1.043469   -0.102535   -2.148201
  H     -2.429804   -0.803433   -1.553622

 Total Charge           Charge          ....    0
 Multiplicity           Mult            ....    1
 Number of Electrons    NEL             ....  240
 Basis Dimension        Dim             ....  608

ORBITAL ENERGIES
----------------

  NO   OCC          E(Eh)            E(eV)
   0   2.0000     -88.281633     -2402.2654
   1   2.0000     -88.276866     -2402.1357
   2   2.0000     -88.261848     -2401.7270
   3   2.0000     -88.255619     -2401.5575
   4   2.0000     -18.799644      -511.5643
   5   2.0000     -18.794822      -511.4331
   6   2.0000     -18.772094      -510.8147
   7   2.0000     -18.764923      -510.6195
   8   2.0000     -18.755836      -510.3722
   9   2.0000     -18.754864      -510.3458
  10   2.0000     -18.749879      -510.2102
  11   2.0000     -18.748715      -510.1785
  12   2.0000     -18.745640      -510.0948
  13   2.0000     -18.737117      -509.8629
  14   2.0000     -18.736989      -509.8594
  15   2.0000     -18.735840      -509.8281
  16   2.0000     -18.733054      -509.7523
  17   2.0000     -18.731635      -509.7137
  18   2.0000     -18.728278      -509.6223
  19   2.0000     -18.713591      -509.2227
  20   2.0000     -14.071066      -382.8932
  21   2.0000     -14.068164      -382.8142
  22   2.0000     -14.066858      -382.7787
  23   2.0000     -14.066440      -382.7673
  24   2.0000      -7.942771      -216.1338
  25   2.0000      -7.937979      -216.0034
  26   2.0000      -7.923342      -215.6051
  27   2.0000      -7.916518      -215.4194
  28   2.0000      -5.973466      -162.5463
  29   2.0000      -5.970235      -162.4584
  30   2.0000      -5.970092      -162.4545
  31   2.0000      -5.968680      -162.4161
  32   2.0000      -5.965591      -162.3320
  33   2.0000      -5.965142      -162.3198
  34   2.0000      -5.954008      -162.0168
  35   2.0000      -5.950969      -161.9341
  36   2.0000      -5.950464      -161.9204
  37   2.0000      -5.947371      -161.8362
  38   2.0000      -5.944443      -161.7565
  39   2.0000      -5.943234      -161.7236
  40   2.0000      -1.104095       -30.0439
  41   2.0000      -1.099409       -29.9164
  42   2.0000      -1.085656       -29.5422
  43   2.0000      -1.075211       -29.2580
  44   2.0000      -0.974561       -26.5192
  45   2.0000      -0.970279       -26.4026
  46   2.0000      -0.952586       -25.9212
  47   2.0000      -0.948694       -25.8153
  48   2.0000      -0.947209       -25.7749
  49   2.0000      -0.943520       -25.6745
  50   2.0000      -0.937476       -25.5100
  51   2.0000      -0.935702       -25.4617
  52   2.0000      -0.934123       -25.4188
  53   2.0000      -0.926575       -25.2134
  54   2.0000      -0.925359       -25.1803
  55   2.0000      -0.918499       -24.9936
  56   2.0000      -0.899906       -24.4877
  57   2.0000      -0.897430       -24.4203
  58   2.0000      -0.895514       -24.3682
  59   2.0000      -0.893707       -24.3190
  60   2.0000      -0.607340       -16.5266
  61   2.0000      -0.604313       -16.4442
  62   2.0000      -0.579225       -15.7615
  63   2.0000      -0.577794       -15.7226
  64   2.0000      -0.527900       -14.3649
  65   2.0000      -0.523424       -14.2431
  66   2.0000      -0.522951       -14.2302
  67   2.0000      -0.521895       -14.2015
  68   2.0000      -0.519607       -14.1392
  69   2.0000      -0.515503       -14.0275
  70   2.0000      -0.513221       -13.9655
  71   2.0000      -0.512679       -13.9507
  72   2.0000      -0.511764       -13.9258
  73   2.0000      -0.510303       -13.8860
  74   2.0000      -0.508169       -13.8280
  75   2.0000      -0.502892       -13.6844
  76   2.0000      -0.494239       -13.4489
  77   2.0000      -0.489796       -13.3280
  78   2.0000      -0.471735       -12.8366
  79   2.0000      -0.467760       -12.7284
  80   2.0000      -0.454639       -12.3714
  81   2.0000      -0.451084       -12.2746
  82   2.0000      -0.446529       -12.1507
  83   2.0000      -0.444185       -12.0869
  84   2.0000      -0.434218       -11.8157
  85   2.0000      -0.432390       -11.7659
  86   2.0000      -0.429815       -11.6959
  87   2.0000      -0.412813       -11.2332
  88   2.0000      -0.403600       -10.9825
  89   2.0000      -0.400421       -10.8960
  90   2.0000      -0.386902       -10.5281
  91   2.0000      -0.381024       -10.3682
  92   2.0000      -0.345058        -9.3895
  93   2.0000      -0.339886        -9.2488
  94   2.0000      -0.336475        -9.1560
  95   2.0000      -0.331352        -9.0166
  96   2.0000      -0.330534        -8.9943
  97   2.0000      -0.327664        -8.9162
  98   2.0000      -0.325885        -8.8678
  99   2.0000      -0.323410        -8.8004
 100   2.0000      -0.319223        -8.6865
 101   2.0000      -0.316530        -8.6132
 102   2.0000      -0.312253        -8.4968
 103   2.0000      -0.308105        -8.3840
 104   2.0000      -0.305206        -8.3051
 105   2.0000      -0.303346        -8.2545
 106   2.0000      -0.301804        -8.2125
 107   2.0000      -0.297139        -8.0856
 108   2.0000      -0.283983        -7.7276
 109   2.0000      -0.282736        -7.6936
 110   2.0000      -0.271509        -7.3881
 111   2.0000      -0.268633        -7.3099
 112   2.0000      -0.267104        -7.2683
 113   2.0000      -0.259368        -7.0578
 114   2.0000      -0.257676        -7.0117
 115   2.0000      -0.250476        -6.8158
 116   2.0000      -0.250105        -6.8057
 117   2.0000      -0.239677        -6.5220
 118   2.0000      -0.238732        -6.4962
 119   2.0000      -0.226910        -6.1745
 120   0.0000      -0.018322        -0.4986
 121   0.0000      -0.003151        -0.0857
 122   0.0000       0.009743         0.2651
 123   0.0000       0.010267         0.2794
 124   0.0000       0.014035         0.3819

MULLIKEN ATOMIC CHARGES
-----------------------
   0 S :    1.258027
   1 O :   -0.621520
   2 O :   -0.664844
   3 O :   -0.586390
   4 O :   -0.618905
   5 H :    0.457350
   6 S :    1.185001
   7 O :   -0.694768
   8 O :   -0.560978
   9 O :   -0.560089
  10 O :   -0.657284
  11 H :    0.436570
  12 S :    1.273897
  13 O :   -0.601142
  14 O :   -0.565373
  15 O :   -0.721232
  16 O :   -0.614606
  17 H :    0.457063
  18 S :    1.221347
  19 O :   -0.659128
  20 O :   -0.722916
  21 O :   -0.438286
  22 O :   -0.696571
  23 H :    0.435983
  24 N :   -0.823886
  25 H :    0.399543
  26 H :    0.457118
  27 H :    0.404854
  28 H :    0.379063
  29 N :   -0.793677
  30 H :    0.392591
  31 H :    0.450879
  32 H :    0.410915
  33 H :    0.389375
  34 N :   -0.775502
  35 H :    0.395464
  36 H :    0.425336
  37 H :    0.371113
  38 H :    0.399385
  39 N :   -0.771578
  40 H :    0.377386
  41 H :    0.392035
  42 H :    0.380643
  43 H :    0.397736
Sum of atomic charges:   -0.0000000

LOEWDIN ATOMIC CHARGES
----------------------
   0 S :    1.881250
   1 O :   -0.796427
   2 O :   -0.851010
   3 O :   -0.790305
   4 O :   -0.676106
   5 H :    0.369345
   6 S :    1.871917
   7 O :   -0.931107
   8 O :   -0.766663
   9 O :   -0.763349
  10 O :   -0.760551
  11 H :    0.374243
  12 S :    1.878700
  13 O :   -0.777727
  14 O :   -0.804032
  15 O :   -0.853090
  16 O :   -0.679477
  17 H :    0.368733
  18 S :    1.874129
  19 O :   -0.876857
  20 O :   -0.883270
  21 O :   -0.672416
  22 O :   -0.785802
  23 H :    0.375277
  24 N :   -0.393793
  25 H :    0.334441
  26 H :    0.347644
  27 H :    0.328417
  28 H :    0.297776
  29 N :   -0.375476
  30 H :    0.313902
  31 H :    0.348315
  32 H :    0.338557
  33 H :    0.306073
  34 N :   -0.398648
  35 H :    0.334394
  36 H :    0.339011
  37 H :    0.300103
  38 H :    0.343380
  39 N :   -0.390467
  40 H :    0.296113
  41 H :    0.334874
  42 H :    0.334288
  43 H :    0.335691

  Mayer bond orders larger than 0.100000
B(  0-S ,  1-O ) :   1.5131 B(  0-S ,  2-O ) :   1.3851 B(  0-S ,  3-O ) :   1.5822
B(  0-S ,  4-O ) :   1.0969 B(  1-O , 23-H ) :   0.1405 B(  2-O , 25-H ) :   0.1351
B(  2-O , 41-H ) :   0.1546 B(  4-O ,  5-H ) :   0.7300 B(  6-S ,  7-O ) :   1.3352
B(  6-S ,  8-O ) :   1.6270 B(  6-S ,  9-O ) :   1.6445 B(  6-S , 10-O ) :   0.9887
B(  8-O , 43-H ) :   0.1219 B(  9-O , 27-H ) :   0.1186 B( 10-O , 11-H ) :   0.6584
B( 11-H , 13-O ) :   0.1256 B( 12-S , 13-O ) :   1.5204 B( 12-S , 14-O ) :   1.6015
B( 12-S , 15-O ) :   1.3626 B( 12-S , 16-O ) :   1.0800 B( 15-O , 35-H ) :   0.1514
B( 15-O , 42-H ) :   0.1324 B( 16-O , 17-H ) :   0.7298 B( 18-S , 19-O ) :   1.4669
B( 18-S , 20-O ) :   1.3753 B( 18-S , 21-O ) :   1.9316 B( 18-S , 22-O ) :   0.9188
B( 20-O , 32-H ) :   0.1371 B( 20-O , 38-H ) :   0.1562 B( 22-O , 23-H ) :   0.6518
B( 24-N , 25-H ) :   0.7258 B( 24-N , 26-H ) :   0.7005 B( 24-N , 27-H ) :   0.7271
B( 24-N , 28-H ) :   0.8310 B( 29-N , 30-H ) :   0.7952 B( 29-N , 31-H ) :   0.7845
B( 29-N , 32-H ) :   0.7037 B( 29-N , 33-H ) :   0.8142 B( 34-N , 35-H ) :   0.7060
B( 34-N , 36-H ) :   0.7525 B( 34-N , 37-H ) :   0.8422 B( 34-N , 38-H ) :   0.6939
B( 39-N , 40-H ) :   0.8395 B( 39-N , 41-H ) :   0.7147 B( 39-N , 42-H ) :   0.7309
B( 39-N , 43-H ) :   0.7257

Dispersion correction           -0.132691266
FINAL SINGLE POINT ENERGY     -3026.645060020763
Dispersion correction            ... done

DIPOLE MOMENT
-------------
                                X             Y             Z
Electronic contribution:      0.47755       0.17119       0.21004
Nuclear contribution   :     -0.81170      -0.53545      -1.49241
                        -----------------------------------------
Total Dipole Moment    :     -0.33415      -0.36426      -1.28238
                        -----------------------------------------
Magnitude (a.u.)       :      1.37435
Magnitude (Debye)      :      3.49331

Rotational constants in cm-1:     0.006365     0.005022     0.004566
Rotational constants in MHz :   190.815616   150.548447   136.892382

                             ****ORCA TERMINATED NORMALLY****
TOTAL RUN TIME: 0 days 0 hours 4 minutes 23 seconds 891 msec
