                         Program Version 5.0.3 -  RELEASE  -
|  1> ! B97-3c ENGRAD
|  2> %pal nprocs 1
|  3>     end
|  4> %Maxcore 3000.00
|  5> * xyzfile 0 1 4sa4am-44_10_615.xyz
|  6>
|  7>
|  8>                          ****END OF INPUT****

CARTESIAN COORDINATES (ANGSTROEM)
---------------------------------
  S      2.162532   -1.933657    1.270726
  O      1.515725   -2.848070    2.182194
  O      2.924625   -2.557729    0.211698
  O      1.281801   -0.883002    0.788940
  O      3.235220   -1.066818    2.164439
  H      3.881556   -1.688456    2.518292
  S     -1.631911    1.698488    2.117918
  O     -0.719456    2.495016    2.904016
  O     -2.666861    2.443326    1.435257
  O     -0.961780    0.741472    1.253606
  O     -2.399887    0.696214    3.169710
  H     -2.894847    1.250371    3.783962
  S      1.553404    2.052935   -1.844595
  O      2.377825    2.906422   -1.017662
  O      2.258876    1.334117   -2.879334
  O      0.656243    1.212328   -1.069819
  O      0.485449    3.040544   -2.609285
  H      0.998035    3.656503   -3.145244
  S     -2.083868   -1.817705   -1.543999
  O     -2.634171   -2.794185   -0.629957
  O     -3.056309   -0.980756   -2.206530
  O     -0.976448   -1.070356   -0.972175
  O     -1.319853   -2.667820   -2.724889
  H     -1.983607   -3.217197   -3.157340
  N      1.520209   -1.281276   -1.937262
  H      1.041417   -0.643038   -1.287911
  H      0.806143   -1.851720   -2.376391
  H      2.012815   -0.696173   -2.606731
  H      2.158909   -1.849508   -1.377448
  N     -2.010611    1.498659   -1.190423
  H     -2.435790    1.973007   -0.391289
  H     -1.370494    0.788768   -0.810259
  H     -2.696632    0.999049   -1.749888
  H     -1.452343    2.137576   -1.745726
  N     -1.150615   -1.906621    1.657444
  H     -1.778825   -2.403398    1.022665
  H     -1.664862   -1.307574    2.293885
  H     -0.520421   -2.537697    2.145575
  H     -0.560843   -1.296068    1.076361
  N      1.640579    1.688862    1.470246
  H      0.885550    1.152604    1.022460
  H      2.055542    2.278268    0.745825
  H      1.207325    2.236045    2.209086
  H      2.310653    1.018249    1.829851

 Total Charge           Charge          ....    0
 Multiplicity           Mult            ....    1
 Number of Electrons    NEL             ....  240
 Basis Dimension        Dim             ....  608

ORBITAL ENERGIES
----------------

  NO   OCC          E(Eh)            E(eV)
   0   2.0000     -88.261741     -2401.7241
   1   2.0000     -88.261714     -2401.7233
   2   2.0000     -88.261712     -2401.7233
   3   2.0000     -88.261705     -2401.7231
   4   2.0000     -18.790635      -511.3192
   5   2.0000     -18.790605      -511.3183
   6   2.0000     -18.790600      -511.3182
   7   2.0000     -18.790581      -511.3177
   8   2.0000     -18.732747      -509.7440
   9   2.0000     -18.732693      -509.7425
  10   2.0000     -18.732693      -509.7425
  11   2.0000     -18.732690      -509.7424
  12   2.0000     -18.732688      -509.7424
  13   2.0000     -18.732679      -509.7421
  14   2.0000     -18.732669      -509.7419
  15   2.0000     -18.732651      -509.7413
  16   2.0000     -18.730233      -509.6755
  17   2.0000     -18.730226      -509.6754
  18   2.0000     -18.730197      -509.6746
  19   2.0000     -18.730191      -509.6744
  20   2.0000     -14.071220      -382.8974
  21   2.0000     -14.071203      -382.8969
  22   2.0000     -14.071153      -382.8955
  23   2.0000     -14.071136      -382.8951
  24   2.0000      -7.923279      -215.6034
  25   2.0000      -7.923252      -215.6026
  26   2.0000      -7.923251      -215.6026
  27   2.0000      -7.923243      -215.6024
  28   2.0000      -5.954418      -162.0280
  29   2.0000      -5.954389      -162.0272
  30   2.0000      -5.954388      -162.0271
  31   2.0000      -5.954383      -162.0270
  32   2.0000      -5.950763      -161.9285
  33   2.0000      -5.950736      -161.9278
  34   2.0000      -5.950735      -161.9277
  35   2.0000      -5.950728      -161.9275
  36   2.0000      -5.950016      -161.9082
  37   2.0000      -5.949990      -161.9075
  38   2.0000      -5.949989      -161.9074
  39   2.0000      -5.949982      -161.9072
  40   2.0000      -1.086438       -29.5635
  41   2.0000      -1.085615       -29.5411
  42   2.0000      -1.085593       -29.5405
  43   2.0000      -1.085566       -29.5398
  44   2.0000      -0.960180       -26.1278
  45   2.0000      -0.959349       -26.1052
  46   2.0000      -0.959327       -26.1046
  47   2.0000      -0.959096       -26.0983
  48   2.0000      -0.934407       -25.4265
  49   2.0000      -0.931272       -25.3412
  50   2.0000      -0.929018       -25.2799
  51   2.0000      -0.929007       -25.2796
  52   2.0000      -0.928727       -25.2719
  53   2.0000      -0.928700       -25.2712
  54   2.0000      -0.928080       -25.2543
  55   2.0000      -0.928070       -25.2541
  56   2.0000      -0.899563       -24.4784
  57   2.0000      -0.899547       -24.4779
  58   2.0000      -0.898328       -24.4448
  59   2.0000      -0.897914       -24.4335
  60   2.0000      -0.592265       -16.1164
  61   2.0000      -0.586317       -15.9545
  62   2.0000      -0.585289       -15.9265
  63   2.0000      -0.585272       -15.9261
  64   2.0000      -0.522905       -14.2290
  65   2.0000      -0.521684       -14.1957
  66   2.0000      -0.521656       -14.1950
  67   2.0000      -0.521358       -14.1869
  68   2.0000      -0.516675       -14.0594
  69   2.0000      -0.516106       -14.0440
  70   2.0000      -0.514496       -14.0001
  71   2.0000      -0.514472       -13.9995
  72   2.0000      -0.510760       -13.8985
  73   2.0000      -0.504264       -13.7217
  74   2.0000      -0.500568       -13.6211
  75   2.0000      -0.500555       -13.6208
  76   2.0000      -0.483309       -13.1515
  77   2.0000      -0.476073       -12.9546
  78   2.0000      -0.476052       -12.9540
  79   2.0000      -0.474998       -12.9254
  80   2.0000      -0.440453       -11.9853
  81   2.0000      -0.439657       -11.9637
  82   2.0000      -0.439635       -11.9631
  83   2.0000      -0.438784       -11.9399
  84   2.0000      -0.429929       -11.6990
  85   2.0000      -0.426964       -11.6183
  86   2.0000      -0.426953       -11.6180
  87   2.0000      -0.425487       -11.5781
  88   2.0000      -0.398993       -10.8572
  89   2.0000      -0.396163       -10.7802
  90   2.0000      -0.395324       -10.7573
  91   2.0000      -0.395303       -10.7567
  92   2.0000      -0.330688        -8.9985
  93   2.0000      -0.329987        -8.9794
  94   2.0000      -0.329862        -8.9760
  95   2.0000      -0.329844        -8.9755
  96   2.0000      -0.320075        -8.7097
  97   2.0000      -0.320066        -8.7094
  98   2.0000      -0.319971        -8.7069
  99   2.0000      -0.319728        -8.7002
 100   2.0000      -0.314160        -8.5487
 101   2.0000      -0.313245        -8.5238
 102   2.0000      -0.309241        -8.4149
 103   2.0000      -0.309238        -8.4148
 104   2.0000      -0.307313        -8.3624
 105   2.0000      -0.306335        -8.3358
 106   2.0000      -0.305932        -8.3248
 107   2.0000      -0.305922        -8.3246
 108   2.0000      -0.276381        -7.5207
 109   2.0000      -0.272407        -7.4126
 110   2.0000      -0.269809        -7.3419
 111   2.0000      -0.269782        -7.3411
 112   2.0000      -0.252260        -6.8643
 113   2.0000      -0.251911        -6.8548
 114   2.0000      -0.251071        -6.8320
 115   2.0000      -0.251057        -6.8316
 116   2.0000      -0.237962        -6.4753
 117   2.0000      -0.236391        -6.4325
 118   2.0000      -0.233579        -6.3560
 119   2.0000      -0.233561        -6.3555
 120   0.0000      -0.019131        -0.5206
 121   0.0000      -0.000403        -0.0110
 122   0.0000       0.001653         0.0450
 123   0.0000       0.001662         0.0452
 124   0.0000       0.032833         0.8934

MULLIKEN ATOMIC CHARGES
-----------------------
   0 S :    1.069058
   1 O :   -0.532609
   2 O :   -0.544572
   3 O :   -0.687445
   4 O :   -0.669376
   5 H :    0.461014
   6 S :    1.068203
   7 O :   -0.531945
   8 O :   -0.544576
   9 O :   -0.687988
  10 O :   -0.669566
  11 H :    0.461081
  12 S :    1.068783
  13 O :   -0.544639
  14 O :   -0.532083
  15 O :   -0.687765
  16 O :   -0.669366
  17 H :    0.461065
  18 S :    1.068457
  19 O :   -0.544390
  20 O :   -0.532087
  21 O :   -0.688143
  22 O :   -0.669512
  23 H :    0.461062
  24 N :   -0.802687
  25 H :    0.554391
  26 H :    0.369288
  27 H :    0.392624
  28 H :    0.390513
  29 N :   -0.802885
  30 H :    0.390868
  31 H :    0.554023
  32 H :    0.392605
  33 H :    0.369427
  34 N :   -0.803310
  35 H :    0.390707
  36 H :    0.369251
  37 H :    0.392592
  38 H :    0.555378
  39 N :   -0.803181
  40 H :    0.554932
  41 H :    0.390729
  42 H :    0.392674
  43 H :    0.369399
Sum of atomic charges:    0.0000000

LOEWDIN ATOMIC CHARGES
----------------------
   0 S :    1.865452
   1 O :   -0.764219
   2 O :   -0.772664
   3 O :   -0.910530
   4 O :   -0.730930
   5 H :    0.366808
   6 S :    1.865437
   7 O :   -0.763894
   8 O :   -0.772753
   9 O :   -0.910820
  10 O :   -0.730890
  11 H :    0.366820
  12 S :    1.865436
  13 O :   -0.772767
  14 O :   -0.763982
  15 O :   -0.910634
  16 O :   -0.730924
  17 H :    0.366822
  18 S :    1.865443
  19 O :   -0.772620
  20 O :   -0.763957
  21 O :   -0.910837
  22 O :   -0.731024
  23 H :    0.366826
  24 N :   -0.379017
  25 H :    0.360666
  26 H :    0.314887
  27 H :    0.320989
  28 H :    0.328559
  29 N :   -0.379040
  30 H :    0.328636
  31 H :    0.360594
  32 H :    0.320998
  33 H :    0.314905
  34 N :   -0.379061
  35 H :    0.328557
  36 H :    0.314802
  37 H :    0.321151
  38 H :    0.360702
  39 N :   -0.379017
  40 H :    0.360623
  41 H :    0.328647
  42 H :    0.320926
  43 H :    0.314895

  Mayer bond orders larger than 0.100000
B(  0-S ,  1-O ) :   1.6796 B(  0-S ,  2-O ) :   1.6320 B(  0-S ,  3-O ) :   1.5282
B(  0-S ,  4-O ) :   0.9456 B(  2-O , 28-H ) :   0.1205 B(  4-O ,  5-H ) :   0.7307
B(  6-S ,  7-O ) :   1.6811 B(  6-S ,  8-O ) :   1.6315 B(  6-S ,  9-O ) :   1.5276
B(  6-S , 10-O ) :   0.9464 B(  8-O , 30-H ) :   0.1205 B( 10-O , 11-H ) :   0.7306
B( 12-S , 13-O ) :   1.6316 B( 12-S , 14-O ) :   1.6804 B( 12-S , 15-O ) :   1.5278
B( 12-S , 16-O ) :   0.9460 B( 13-O , 41-H ) :   0.1207 B( 16-O , 17-H ) :   0.7306
B( 18-S , 19-O ) :   1.6323 B( 18-S , 20-O ) :   1.6806 B( 18-S , 21-O ) :   1.5278
B( 18-S , 22-O ) :   0.9458 B( 19-O , 35-H ) :   0.1202 B( 22-O , 23-H ) :   0.7306
B( 24-N , 25-H ) :   0.6783 B( 24-N , 26-H ) :   0.8053 B( 24-N , 27-H ) :   0.7808
B( 24-N , 28-H ) :   0.7367 B( 29-N , 30-H ) :   0.7365 B( 29-N , 31-H ) :   0.6789
B( 29-N , 32-H ) :   0.7808 B( 29-N , 33-H ) :   0.8053 B( 34-N , 35-H ) :   0.7369
B( 34-N , 36-H ) :   0.8056 B( 34-N , 37-H ) :   0.7802 B( 34-N , 38-H ) :   0.6776
B( 39-N , 40-H ) :   0.6783 B( 39-N , 41-H ) :   0.7363 B( 39-N , 42-H ) :   0.7810
B( 39-N , 43-H ) :   0.8053

Dispersion correction           -0.124974512
FINAL SINGLE POINT ENERGY     -3026.626608122721
Dispersion correction            ... done

DIPOLE MOMENT
-------------
                                X             Y             Z
Electronic contribution:     -0.00003       0.00048       0.00010
Nuclear contribution   :     -0.00125      -0.00067      -0.00044
                        -----------------------------------------
Total Dipole Moment    :     -0.00128      -0.00019      -0.00034
                        -----------------------------------------
Magnitude (a.u.)       :      0.00134
Magnitude (Debye)      :      0.00340

Rotational constants in cm-1:     0.004999     0.004998     0.004794
Rotational constants in MHz :   149.855060   149.836375   143.707562

                             ****ORCA TERMINATED NORMALLY****
TOTAL RUN TIME: 0 days 0 hours 4 minutes 47 seconds 229 msec
