                         Program Version 5.0.3 -  RELEASE  -
|  1> ! B97-3c ENGRAD
|  2> %pal nprocs 1
|  3>     end
|  4> %Maxcore 3000.00
|  5> * xyzfile 0 1 4sa4am-44_10_149.xyz
|  6>
|  7>
|  8>                          ****END OF INPUT****

CARTESIAN COORDINATES (ANGSTROEM)
---------------------------------
  S      3.173054   -2.875177   -0.292744
  O      3.594947   -1.499108   -0.509154
  O      3.007292   -3.222352    1.102999
  O      2.024409   -3.242861   -1.113589
  O      4.353163   -3.812033   -0.868739
  H      5.128123   -3.704228   -0.306238
  S     -3.289094    2.836189    0.201887
  O     -3.007918    3.263314   -1.154285
  O     -3.698620    1.447709    0.311567
  O     -2.218262    3.178428    1.134189
  O     -4.528948    3.726460    0.722111
  H     -5.259940    3.618979    0.103455
  S      1.776526    0.984458    0.620424
  O      1.025822   -0.259253    0.810230
  O      1.861311    1.368652   -0.787297
  O      1.277399    2.056053    1.463596
  O      3.254400    0.686806    1.114041
  H      3.556994   -0.121778    0.640909
  S     -1.724077   -0.999801   -0.684818
  O     -1.719344   -1.161792    0.776381
  O     -1.015530    0.220864   -1.099524
  O     -1.239538   -2.172272   -1.372235
  O     -3.230528   -0.803441   -1.114174
  H     -3.548899    0.028298   -0.686458
  N      1.312223   -0.887401   -2.171977
  H      2.094169   -0.345187   -1.806653
  H      1.267722   -0.841237   -3.177389
  H      1.443647   -1.862701   -1.854085
  H      0.454276   -0.505280   -1.753033
  N     -0.318455    2.886419   -0.795036
  H      0.480587    3.053209   -1.391376
  H     -0.553418    1.885958   -0.836943
  H     -0.072260    3.099834    0.167702
  H     -1.156946    3.401863   -1.072540
  N      0.277844   -2.911589    0.903303
  H     -0.497016   -3.011344    1.543222
  H      1.088438   -3.480460    1.143333
  H     -0.035214   -3.116547   -0.044665
  H      0.583044   -1.928641    0.901623
  N     -1.184344    0.999906    2.266303
  H     -1.444719    0.771192    3.212023
  H     -1.728254    1.810323    1.919940
  H     -0.193506    1.243823    2.198131
  H     -1.370561    0.195746    1.635583

 Total Charge           Charge          ....    0
 Multiplicity           Mult            ....    1
 Number of Electrons    NEL             ....  240
 Basis Dimension        Dim             ....  608

ORBITAL ENERGIES
----------------

  NO   OCC          E(Eh)            E(eV)
   0   2.0000     -88.270527     -2401.9632
   1   2.0000     -88.269470     -2401.9344
   2   2.0000     -88.268740     -2401.9145
   3   2.0000     -88.266266     -2401.8472
   4   2.0000     -18.788485      -511.2607
   5   2.0000     -18.787879      -511.2442
   6   2.0000     -18.772806      -510.8340
   7   2.0000     -18.769773      -510.7515
   8   2.0000     -18.743620      -510.0398
   9   2.0000     -18.742487      -510.0090
  10   2.0000     -18.740905      -509.9659
  11   2.0000     -18.740345      -509.9507
  12   2.0000     -18.737725      -509.8794
  13   2.0000     -18.737422      -509.8712
  14   2.0000     -18.737085      -509.8620
  15   2.0000     -18.735682      -509.8238
  16   2.0000     -18.733504      -509.7646
  17   2.0000     -18.732517      -509.7377
  18   2.0000     -18.730179      -509.6741
  19   2.0000     -18.729029      -509.6428
  20   2.0000     -14.080714      -383.1557
  21   2.0000     -14.080594      -383.1524
  22   2.0000     -14.066451      -382.7676
  23   2.0000     -14.061122      -382.6226
  24   2.0000      -7.930972      -215.8127
  25   2.0000      -7.930512      -215.8002
  26   2.0000      -7.929841      -215.7819
  27   2.0000      -7.926685      -215.6961
  28   2.0000      -5.961208      -162.2127
  29   2.0000      -5.961097      -162.2097
  30   2.0000      -5.960535      -162.1944
  31   2.0000      -5.959028      -162.1534
  32   2.0000      -5.958494      -162.1389
  33   2.0000      -5.958267      -162.1327
  34   2.0000      -5.957553      -162.1133
  35   2.0000      -5.957527      -162.1125
  36   2.0000      -5.956933      -162.0964
  37   2.0000      -5.956920      -162.0960
  38   2.0000      -5.954693      -162.0354
  39   2.0000      -5.954151      -162.0207
  40   2.0000      -1.091820       -29.7099
  41   2.0000      -1.090946       -29.6861
  42   2.0000      -1.089362       -29.6430
  43   2.0000      -1.085362       -29.5342
  44   2.0000      -0.963752       -26.2250
  45   2.0000      -0.963109       -26.2075
  46   2.0000      -0.955232       -25.9932
  47   2.0000      -0.951730       -25.8979
  48   2.0000      -0.934904       -25.4400
  49   2.0000      -0.934320       -25.4241
  50   2.0000      -0.933928       -25.4135
  51   2.0000      -0.931972       -25.3602
  52   2.0000      -0.931256       -25.3408
  53   2.0000      -0.930138       -25.3104
  54   2.0000      -0.928882       -25.2762
  55   2.0000      -0.923444       -25.1282
  56   2.0000      -0.908972       -24.7344
  57   2.0000      -0.906001       -24.6536
  58   2.0000      -0.895963       -24.3804
  59   2.0000      -0.891407       -24.2564
  60   2.0000      -0.598329       -16.2814
  61   2.0000      -0.596818       -16.2402
  62   2.0000      -0.587266       -15.9803
  63   2.0000      -0.581474       -15.8227
  64   2.0000      -0.533037       -14.5047
  65   2.0000      -0.529956       -14.4208
  66   2.0000      -0.527471       -14.3532
  67   2.0000      -0.524859       -14.2821
  68   2.0000      -0.523173       -14.2363
  69   2.0000      -0.522126       -14.2078
  70   2.0000      -0.519743       -14.1429
  71   2.0000      -0.516799       -14.0628
  72   2.0000      -0.512207       -13.9379
  73   2.0000      -0.507688       -13.8149
  74   2.0000      -0.504706       -13.7337
  75   2.0000      -0.503635       -13.7046
  76   2.0000      -0.488111       -13.2822
  77   2.0000      -0.485069       -13.1994
  78   2.0000      -0.478076       -13.0091
  79   2.0000      -0.473379       -12.8813
  80   2.0000      -0.446449       -12.1485
  81   2.0000      -0.445202       -12.1146
  82   2.0000      -0.442983       -12.0542
  83   2.0000      -0.440686       -11.9917
  84   2.0000      -0.435339       -11.8462
  85   2.0000      -0.434156       -11.8140
  86   2.0000      -0.431440       -11.7401
  87   2.0000      -0.428462       -11.6590
  88   2.0000      -0.392649       -10.6845
  89   2.0000      -0.392585       -10.6828
  90   2.0000      -0.382917       -10.4197
  91   2.0000      -0.380579       -10.3561
  92   2.0000      -0.334771        -9.1096
  93   2.0000      -0.333849        -9.0845
  94   2.0000      -0.330132        -8.9833
  95   2.0000      -0.328049        -8.9267
  96   2.0000      -0.325216        -8.8496
  97   2.0000      -0.322709        -8.7814
  98   2.0000      -0.321327        -8.7438
  99   2.0000      -0.319926        -8.7056
 100   2.0000      -0.316520        -8.6129
 101   2.0000      -0.316017        -8.5993
 102   2.0000      -0.313864        -8.5407
 103   2.0000      -0.311628        -8.4798
 104   2.0000      -0.310621        -8.4524
 105   2.0000      -0.309844        -8.4313
 106   2.0000      -0.308762        -8.4018
 107   2.0000      -0.299573        -8.1518
 108   2.0000      -0.275153        -7.4873
 109   2.0000      -0.273654        -7.4465
 110   2.0000      -0.272028        -7.4023
 111   2.0000      -0.263406        -7.1676
 112   2.0000      -0.253716        -6.9040
 113   2.0000      -0.253166        -6.8890
 114   2.0000      -0.250190        -6.8080
 115   2.0000      -0.246342        -6.7033
 116   2.0000      -0.243543        -6.6271
 117   2.0000      -0.241676        -6.5764
 118   2.0000      -0.241433        -6.5697
 119   2.0000      -0.238153        -6.4805
 120   0.0000      -0.015533        -0.4227
 121   0.0000       0.001299         0.0353
 122   0.0000       0.007686         0.2091
 123   0.0000       0.012970         0.3529
 124   0.0000       0.019487         0.5303

MULLIKEN ATOMIC CHARGES
-----------------------
   0 S :    1.189023
   1 O :   -0.594581
   2 O :   -0.570000
   3 O :   -0.666287
   4 O :   -0.619668
   5 H :    0.458297
   6 S :    1.187485
   7 O :   -0.571707
   8 O :   -0.568318
   9 O :   -0.676291
  10 O :   -0.619656
  11 H :    0.458369
  12 S :    1.170389
  13 O :   -0.601662
  14 O :   -0.622301
  15 O :   -0.644780
  16 O :   -0.593741
  17 H :    0.447046
  18 S :    1.228898
  19 O :   -0.649718
  20 O :   -0.691059
  21 O :   -0.586106
  22 O :   -0.580794
  23 H :    0.445454
  24 N :   -0.752237
  25 H :    0.392010
  26 H :    0.371789
  27 H :    0.392157
  28 H :    0.400971
  29 N :   -0.829469
  30 H :    0.394752
  31 H :    0.458939
  32 H :    0.406548
  33 H :    0.414727
  34 N :   -0.825334
  35 H :    0.388605
  36 H :    0.413110
  37 H :    0.415817
  38 H :    0.449692
  39 N :   -0.787521
  40 H :    0.365679
  41 H :    0.399500
  42 H :    0.394931
  43 H :    0.407039
Sum of atomic charges:    0.0000000

LOEWDIN ATOMIC CHARGES
----------------------
   0 S :    1.868631
   1 O :   -0.804261
   2 O :   -0.783674
   3 O :   -0.848585
   4 O :   -0.679348
   5 H :    0.368599
   6 S :    1.868203
   7 O :   -0.788222
   8 O :   -0.776458
   9 O :   -0.852364
  10 O :   -0.679325
  11 H :    0.368936
  12 S :    1.880969
  13 O :   -0.877420
  14 O :   -0.855284
  15 O :   -0.817712
  16 O :   -0.692264
  17 H :    0.377681
  18 S :    1.889272
  19 O :   -0.870777
  20 O :   -0.894128
  21 O :   -0.775082
  22 O :   -0.688050
  23 H :    0.380752
  24 N :   -0.394151
  25 H :    0.333166
  26 H :    0.298305
  27 H :    0.339050
  28 H :    0.337655
  29 N :   -0.381516
  30 H :    0.314603
  31 H :    0.343432
  32 H :    0.331828
  33 H :    0.330335
  34 N :   -0.377936
  35 H :    0.309276
  36 H :    0.327128
  37 H :    0.338021
  38 H :    0.345925
  39 N :   -0.423912
  40 H :    0.296280
  41 H :    0.338552
  42 H :    0.330555
  43 H :    0.343316

  Mayer bond orders larger than 0.100000
B(  0-S ,  1-O ) :   1.5071 B(  0-S ,  2-O ) :   1.6179 B(  0-S ,  3-O ) :   1.4636
B(  0-S ,  4-O ) :   1.0813 B(  1-O , 17-H ) :   0.1092 B(  3-O , 27-H ) :   0.1493
B(  4-O ,  5-H ) :   0.7302 B(  6-S ,  7-O ) :   1.6122 B(  6-S ,  8-O ) :   1.5224
B(  6-S ,  9-O ) :   1.4472 B(  6-S , 10-O ) :   1.0799 B(  7-O , 33-H ) :   0.1075
B(  8-O , 23-H ) :   0.1186 B(  9-O , 41-H ) :   0.1586 B( 10-O , 11-H ) :   0.7301
B( 12-S , 13-O ) :   1.4563 B( 12-S , 14-O ) :   1.5247 B( 12-S , 15-O ) :   1.5515
B( 12-S , 16-O ) :   1.1270 B( 15-O , 42-H ) :   0.1210 B( 16-O , 17-H ) :   0.6565
B( 18-S , 19-O ) :   1.4210 B( 18-S , 20-O ) :   1.3391 B( 18-S , 21-O ) :   1.6592
B( 18-S , 22-O ) :   1.1653 B( 19-O , 43-H ) :   0.1493 B( 20-O , 28-H ) :   0.1393
B( 22-O , 23-H ) :   0.6443 B( 24-N , 25-H ) :   0.7616 B( 24-N , 26-H ) :   0.8422
B( 24-N , 27-H ) :   0.6986 B( 24-N , 28-H ) :   0.7184 B( 29-N , 30-H ) :   0.8041
B( 29-N , 31-H ) :   0.7404 B( 29-N , 32-H ) :   0.7640 B( 29-N , 33-H ) :   0.7197
B( 34-N , 35-H ) :   0.8125 B( 34-N , 36-H ) :   0.7413 B( 34-N , 37-H ) :   0.7495
B( 34-N , 38-H ) :   0.7197 B( 39-N , 40-H ) :   0.8476 B( 39-N , 41-H ) :   0.6874
B( 39-N , 42-H ) :   0.7331 B( 39-N , 43-H ) :   0.6888

Dispersion correction           -0.133524566
FINAL SINGLE POINT ENERGY     -3026.637419839810
Dispersion correction            ... done

DIPOLE MOMENT
-------------
                                X             Y             Z
Electronic contribution:     -0.41433      -0.35741      -0.75967
Nuclear contribution   :      0.41466       0.33975       0.94960
                        -----------------------------------------
Total Dipole Moment    :      0.00033      -0.01766       0.18993
                        -----------------------------------------
Magnitude (a.u.)       :      0.19075
Magnitude (Debye)      :      0.48484

Rotational constants in cm-1:     0.010910     0.003532     0.003093
Rotational constants in MHz :   327.065505   105.893556    92.714823

                             ****ORCA TERMINATED NORMALLY****
TOTAL RUN TIME: 0 days 0 hours 4 minutes 34 seconds 725 msec
