                         Program Version 5.0.3 -  RELEASE  -
|  1> ! B97-3c ENGRAD
|  2> %pal nprocs 1
|  3>     end
|  4> %Maxcore 3000.00
|  5> * xyzfile 0 1 4sa4am-44_10_133.xyz
|  6>
|  7>
|  8>                          ****END OF INPUT****

CARTESIAN COORDINATES (ANGSTROEM)
---------------------------------
  S      1.051476    1.773617   -1.358035
  O      0.057165    1.830021   -0.287923
  O      1.614261    0.427533   -1.529965
  O      0.569914    2.307572   -2.616618
  O      2.249824    2.706218   -0.908064
  H      2.565654    2.372953   -0.033955
  S      3.389206    0.332079    1.834695
  O      4.204315   -0.169533    0.751852
  O      2.693579    1.572691    1.518372
  O      2.493867   -0.669410    2.404931
  O      4.391252    0.668494    3.054915
  H      5.112320    1.208996    2.714107
  S     -0.848798   -1.746878   -1.097532
  O     -0.322391   -1.199635    0.142474
  O     -1.552230   -0.713970   -1.902128
  O      0.147629   -2.426141   -1.902322
  O     -1.925605   -2.821222   -0.705369
  H     -2.464112   -2.478397    0.063131
  S     -3.630306   -0.450714    1.613840
  O     -4.511360    0.085542    0.585107
  O     -3.230605   -1.823641    1.364275
  O     -2.529786    0.445552    1.924123
  O     -4.488308   -0.480232    2.982461
  H     -5.208070   -1.110650    2.868642
  N      0.243749   -0.151443   -3.729178
  H      0.440993    0.845502   -3.546546
  H      0.019051   -0.337413   -4.692910
  H      1.036052   -0.694746   -3.407061
  H     -0.545923   -0.406911   -3.087955
  N      2.263512   -1.782068   -0.148497
  H      2.032894   -1.746818    0.842088
  H      2.008598   -0.859102   -0.545923
  H      3.262498   -1.904474   -0.250650
  H      1.710613   -2.481896   -0.633674
  N      0.083976    0.556883    2.180541
  H     -0.434613    1.058238    2.886406
  H      0.325061    1.174004    1.398761
  H      0.952600    0.142849    2.537209
  H     -0.508946   -0.177519    1.794175
  N     -2.554705    1.447963   -0.627002
  H     -2.618886    2.222109   -1.268148
  H     -2.000946    1.703474    0.183930
  H     -3.469460    1.103070   -0.292523
  H     -2.075007    0.647451   -1.074057

 Total Charge           Charge          ....    0
 Multiplicity           Mult            ....    1
 Number of Electrons    NEL             ....  240
 Basis Dimension        Dim             ....  608

ORBITAL ENERGIES
----------------

  NO   OCC          E(Eh)            E(eV)
   0   2.0000     -88.270948     -2401.9746
   1   2.0000     -88.266211     -2401.8457
   2   2.0000     -88.265791     -2401.8343
   3   2.0000     -88.260538     -2401.6913
   4   2.0000     -18.785176      -511.1706
   5   2.0000     -18.781086      -511.0593
   6   2.0000     -18.769784      -510.7518
   7   2.0000     -18.767471      -510.6888
   8   2.0000     -18.749416      -510.1976
   9   2.0000     -18.743579      -510.0387
  10   2.0000     -18.737915      -509.8846
  11   2.0000     -18.737380      -509.8700
  12   2.0000     -18.735761      -509.8260
  13   2.0000     -18.731606      -509.7129
  14   2.0000     -18.729671      -509.6603
  15   2.0000     -18.729669      -509.6602
  16   2.0000     -18.729663      -509.6601
  17   2.0000     -18.728634      -509.6320
  18   2.0000     -18.726928      -509.5856
  19   2.0000     -18.726377      -509.5706
  20   2.0000     -14.082882      -383.2147
  21   2.0000     -14.070097      -382.8668
  22   2.0000     -14.067586      -382.7985
  23   2.0000     -14.060810      -382.6141
  24   2.0000      -7.931394      -215.8242
  25   2.0000      -7.927319      -215.7133
  26   2.0000      -7.926084      -215.6797
  27   2.0000      -7.921401      -215.5523
  28   2.0000      -5.961391      -162.2177
  29   2.0000      -5.959472      -162.1655
  30   2.0000      -5.958986      -162.1522
  31   2.0000      -5.958075      -162.1275
  32   2.0000      -5.956274      -162.0785
  33   2.0000      -5.954938      -162.0421
  34   2.0000      -5.954406      -162.0276
  35   2.0000      -5.954063      -162.0183
  36   2.0000      -5.953633      -162.0066
  37   2.0000      -5.952082      -161.9644
  38   2.0000      -5.949062      -161.8822
  39   2.0000      -5.948585      -161.8692
  40   2.0000      -1.090422       -29.6719
  41   2.0000      -1.088521       -29.6202
  42   2.0000      -1.083786       -29.4913
  43   2.0000      -1.081096       -29.4181
  44   2.0000      -0.960640       -26.1403
  45   2.0000      -0.955505       -26.0006
  46   2.0000      -0.953132       -25.9360
  47   2.0000      -0.949679       -25.8421
  48   2.0000      -0.936711       -25.4892
  49   2.0000      -0.932744       -25.3813
  50   2.0000      -0.930634       -25.3238
  51   2.0000      -0.927366       -25.2349
  52   2.0000      -0.927053       -25.2264
  53   2.0000      -0.925010       -25.1708
  54   2.0000      -0.923649       -25.1338
  55   2.0000      -0.921145       -25.0656
  56   2.0000      -0.908424       -24.7195
  57   2.0000      -0.898595       -24.4520
  58   2.0000      -0.895741       -24.3743
  59   2.0000      -0.890677       -24.2366
  60   2.0000      -0.595260       -16.1979
  61   2.0000      -0.594029       -16.1644
  62   2.0000      -0.582771       -15.8580
  63   2.0000      -0.580894       -15.8069
  64   2.0000      -0.539665       -14.6850
  65   2.0000      -0.527747       -14.3607
  66   2.0000      -0.524809       -14.2808
  67   2.0000      -0.521751       -14.1976
  68   2.0000      -0.520596       -14.1661
  69   2.0000      -0.516511       -14.0550
  70   2.0000      -0.515777       -14.0350
  71   2.0000      -0.513634       -13.9767
  72   2.0000      -0.512708       -13.9515
  73   2.0000      -0.510722       -13.8974
  74   2.0000      -0.504829       -13.7371
  75   2.0000      -0.500726       -13.6254
  76   2.0000      -0.485054       -13.1990
  77   2.0000      -0.481032       -13.0895
  78   2.0000      -0.474662       -12.9162
  79   2.0000      -0.467236       -12.7141
  80   2.0000      -0.442964       -12.0537
  81   2.0000      -0.441426       -12.0118
  82   2.0000      -0.439268       -11.9531
  83   2.0000      -0.436898       -11.8886
  84   2.0000      -0.433892       -11.8068
  85   2.0000      -0.431457       -11.7405
  86   2.0000      -0.428717       -11.6660
  87   2.0000      -0.423868       -11.5340
  88   2.0000      -0.390675       -10.6308
  89   2.0000      -0.385264       -10.4836
  90   2.0000      -0.382230       -10.4010
  91   2.0000      -0.376708       -10.2507
  92   2.0000      -0.332174        -9.0389
  93   2.0000      -0.330424        -8.9913
  94   2.0000      -0.327009        -8.8984
  95   2.0000      -0.326082        -8.8732
  96   2.0000      -0.322638        -8.7794
  97   2.0000      -0.320377        -8.7179
  98   2.0000      -0.318493        -8.6666
  99   2.0000      -0.316893        -8.6231
 100   2.0000      -0.315056        -8.5731
 101   2.0000      -0.311553        -8.4778
 102   2.0000      -0.309830        -8.4309
 103   2.0000      -0.308763        -8.4019
 104   2.0000      -0.306972        -8.3531
 105   2.0000      -0.305171        -8.3041
 106   2.0000      -0.302819        -8.2401
 107   2.0000      -0.299363        -8.1461
 108   2.0000      -0.271859        -7.3976
 109   2.0000      -0.269351        -7.3294
 110   2.0000      -0.265482        -7.2241
 111   2.0000      -0.264157        -7.1881
 112   2.0000      -0.252069        -6.8591
 113   2.0000      -0.250328        -6.8118
 114   2.0000      -0.246692        -6.7128
 115   2.0000      -0.246384        -6.7045
 116   2.0000      -0.243830        -6.6350
 117   2.0000      -0.238666        -6.4944
 118   2.0000      -0.237954        -6.4751
 119   2.0000      -0.229177        -6.2362
 120   0.0000      -0.018928        -0.5151
 121   0.0000      -0.000814        -0.0221
 122   0.0000       0.005394         0.1468
 123   0.0000       0.019733         0.5370
 124   0.0000       0.023135         0.6295

MULLIKEN ATOMIC CHARGES
-----------------------
   0 S :    1.161379
   1 O :   -0.606498
   2 O :   -0.656621
   3 O :   -0.597650
   4 O :   -0.593145
   5 H :    0.440580
   6 S :    1.187542
   7 O :   -0.540206
   8 O :   -0.597921
   9 O :   -0.686017
  10 O :   -0.622025
  11 H :    0.457741
  12 S :    1.252852
  13 O :   -0.581621
  14 O :   -0.738067
  15 O :   -0.618584
  16 O :   -0.568279
  17 H :    0.435263
  18 S :    1.113806
  19 O :   -0.582376
  20 O :   -0.542542
  21 O :   -0.620136
  22 O :   -0.625923
  23 H :    0.455434
  24 N :   -0.800260
  25 H :    0.400040
  26 H :    0.377265
  27 H :    0.393379
  28 H :    0.399482
  29 N :   -0.854341
  30 H :    0.410523
  31 H :    0.472135
  32 H :    0.397909
  33 H :    0.400365
  34 N :   -0.787893
  35 H :    0.381350
  36 H :    0.412699
  37 H :    0.401595
  38 H :    0.447228
  39 N :   -0.812218
  40 H :    0.374368
  41 H :    0.413882
  42 H :    0.405763
  43 H :    0.439744
Sum of atomic charges:    0.0000000

LOEWDIN ATOMIC CHARGES
----------------------
   0 S :    1.885475
   1 O :   -0.864544
   2 O :   -0.887777
   3 O :   -0.784929
   4 O :   -0.695403
   5 H :    0.378740
   6 S :    1.865935
   7 O :   -0.774872
   8 O :   -0.805264
   9 O :   -0.851597
  10 O :   -0.681707
  11 H :    0.368545
  12 S :    1.892601
  13 O :   -0.847150
  14 O :   -0.903428
  15 O :   -0.799209
  16 O :   -0.698086
  17 H :    0.386941
  18 S :    1.866398
  19 O :   -0.807122
  20 O :   -0.760416
  21 O :   -0.847556
  22 O :   -0.683145
  23 H :    0.367614
  24 N :   -0.417034
  25 H :    0.340331
  26 H :    0.293106
  27 H :    0.326603
  28 H :    0.349011
  29 N :   -0.387699
  30 H :    0.332613
  31 H :    0.350489
  32 H :    0.314634
  33 H :    0.319886
  34 N :   -0.379292
  35 H :    0.308242
  36 H :    0.339399
  37 H :    0.332084
  38 H :    0.343854
  39 N :   -0.398922
  40 H :    0.298564
  41 H :    0.333943
  42 H :    0.337052
  43 H :    0.343094

  Mayer bond orders larger than 0.100000
B(  0-S ,  1-O ) :   1.4966 B(  0-S ,  2-O ) :   1.4263 B(  0-S ,  3-O ) :   1.5948
B(  0-S ,  4-O ) :   1.1684 B(  3-O , 25-H ) :   0.1600 B(  4-O ,  5-H ) :   0.6498
B(  5-H ,  8-O ) :   0.1227 B(  6-S ,  7-O ) :   1.6567 B(  6-S ,  8-O ) :   1.4894
B(  6-S ,  9-O ) :   1.4407 B(  6-S , 10-O ) :   1.0769 B(  9-O , 37-H ) :   0.1414
B( 10-O , 11-H ) :   0.7306 B( 12-S , 13-O ) :   1.4998 B( 12-S , 14-O ) :   1.2423
B( 12-S , 15-O ) :   1.6404 B( 12-S , 16-O ) :   1.1920 B( 14-O , 28-H ) :   0.2264
B( 14-O , 43-H ) :   0.1184 B( 16-O , 17-H ) :   0.6153 B( 17-H , 20-O ) :   0.1574
B( 18-S , 19-O ) :   1.5614 B( 18-S , 20-O ) :   1.5494 B( 18-S , 21-O ) :   1.5675
B( 18-S , 22-O ) :   1.0739 B( 19-O , 42-H ) :   0.1678 B( 22-O , 23-H ) :   0.7324
B( 24-N , 25-H ) :   0.6920 B( 24-N , 26-H ) :   0.8293 B( 24-N , 27-H ) :   0.8061
B( 24-N , 28-H ) :   0.6465 B( 29-N , 30-H ) :   0.7500 B( 29-N , 31-H ) :   0.7131
B( 29-N , 32-H ) :   0.8032 B( 29-N , 33-H ) :   0.7597 B( 34-N , 35-H ) :   0.8251
B( 34-N , 36-H ) :   0.7354 B( 34-N , 37-H ) :   0.7087 B( 34-N , 38-H ) :   0.7366
B( 39-N , 40-H ) :   0.8324 B( 39-N , 41-H ) :   0.7776 B( 39-N , 42-H ) :   0.6766
B( 39-N , 43-H ) :   0.7188

Dispersion correction           -0.129954211
FINAL SINGLE POINT ENERGY     -3026.634825628345
Dispersion correction            ... done

DIPOLE MOMENT
-------------
                                X             Y             Z
Electronic contribution:     -0.08862      -0.41945       4.77808
Nuclear contribution   :      0.24570       0.50183      -6.32247
                        -----------------------------------------
Total Dipole Moment    :      0.15708       0.08237      -1.54439
                        -----------------------------------------
Magnitude (a.u.)       :      1.55454
Magnitude (Debye)      :      3.95133

Rotational constants in cm-1:     0.007345     0.004175     0.003627
Rotational constants in MHz :   220.209686   125.159650   108.726584

                             ****ORCA TERMINATED NORMALLY****
TOTAL RUN TIME: 0 days 0 hours 4 minutes 21 seconds 327 msec
