                         Program Version 5.0.3 -  RELEASE  -
|  1> ! B97-3c ENGRAD
|  2> %pal nprocs 1
|  3>     end
|  4> %Maxcore 3000.00
|  5> * xyzfile 0 1 4sa4am-44_3_532.xyz
|  6>
|  7>
|  8>                          ****END OF INPUT****

CARTESIAN COORDINATES (ANGSTROEM)
---------------------------------
  S     -1.017966   -2.044589   -2.812860
  O     -0.427774   -1.572465   -4.040972
  O     -1.164223   -3.484484   -2.715774
  O     -0.420923   -1.465942   -1.622145
  O     -2.536788   -1.425470   -2.757793
  H     -2.994614   -1.707546   -3.558524
  S      1.768530   -1.595703    1.013655
  O      2.180741   -1.615029   -0.389698
  O      0.376843   -1.131746    1.173264
  O      2.008490   -2.834610    1.697581
  O      2.682286   -0.495689    1.734801
  H      2.709823    0.321910    1.181574
  S     -2.200381    2.288020    2.358253
  O     -3.187794    1.300504    1.954349
  O     -1.661748    2.051217    3.688042
  O     -1.165678    2.493321    1.357963
  O     -2.961462    3.708130    2.419041
  H     -3.613069    3.673342    3.128234
  S      1.559150    2.291378   -0.483709
  O      0.476730    1.328402   -0.757979
  O      2.251790    1.959559    0.763229
  O      2.424559    2.481579   -1.611129
  O      0.815500    3.679960   -0.233415
  H      0.050818    3.517103    0.353438
  N      0.302139   -3.647733   -0.385498
  H      1.091141   -3.075209   -0.708108
  H      0.649645   -4.441178    0.134044
  H     -0.215650   -3.024189    0.228647
  H     -0.279940   -3.889754   -1.196858
  N     -1.872571    0.247434   -0.182266
  H     -2.521296    0.485969    0.579459
  H     -2.317486   -0.232833   -0.955216
  H     -1.436091    1.109597   -0.504584
  H     -1.103745   -0.323545    0.172069
  N      0.717838    1.062231    2.849013
  H     -0.095822    1.479428    3.325275
  H      1.095191    1.718519    2.158021
  H      1.450376    0.788996    3.487414
  H      0.416954    0.238079    2.317130
  N      1.646090   -0.050394   -2.663474
  H      2.286617    0.656196   -3.002537
  H      1.070482   -0.462718   -3.393291
  H      2.134480   -0.772304   -2.140142
  H      1.028810    0.412257   -1.958526

 Total Charge           Charge          ....    0
 Multiplicity           Mult            ....    1
 Number of Electrons    NEL             ....  240
 Basis Dimension        Dim             ....  608

ORBITAL ENERGIES
----------------

  NO   OCC          E(Eh)            E(eV)
   0   2.0000     -88.272596     -2402.0195
   1   2.0000     -88.271992     -2402.0030
   2   2.0000     -88.270812     -2401.9709
   3   2.0000     -88.266766     -2401.8608
   4   2.0000     -18.802739      -511.6485
   5   2.0000     -18.790073      -511.3039
   6   2.0000     -18.782707      -511.1034
   7   2.0000     -18.775998      -510.9209
   8   2.0000     -18.746167      -510.1091
   9   2.0000     -18.745357      -510.0871
  10   2.0000     -18.743452      -510.0353
  11   2.0000     -18.743342      -510.0323
  12   2.0000     -18.742168      -510.0003
  13   2.0000     -18.741737      -509.9886
  14   2.0000     -18.740958      -509.9674
  15   2.0000     -18.737626      -509.8767
  16   2.0000     -18.737606      -509.8762
  17   2.0000     -18.735104      -509.8081
  18   2.0000     -18.732786      -509.7450
  19   2.0000     -18.729424      -509.6535
  20   2.0000     -14.099309      -383.6617
  21   2.0000     -14.069384      -382.8474
  22   2.0000     -14.068574      -382.8254
  23   2.0000     -14.068570      -382.8253
  24   2.0000      -7.934323      -215.9039
  25   2.0000      -7.932877      -215.8646
  26   2.0000      -7.931824      -215.8359
  27   2.0000      -7.927625      -215.7216
  28   2.0000      -5.965461      -162.3285
  29   2.0000      -5.963454      -162.2738
  30   2.0000      -5.962514      -162.2483
  31   2.0000      -5.961708      -162.2263
  32   2.0000      -5.961108      -162.2100
  33   2.0000      -5.960501      -162.1935
  34   2.0000      -5.960250      -162.1866
  35   2.0000      -5.959730      -162.1725
  36   2.0000      -5.958733      -162.1454
  37   2.0000      -5.957985      -162.1250
  38   2.0000      -5.955398      -162.0546
  39   2.0000      -5.955019      -162.0443
  40   2.0000      -1.097815       -29.8731
  41   2.0000      -1.092884       -29.7389
  42   2.0000      -1.092298       -29.7229
  43   2.0000      -1.087208       -29.5844
  44   2.0000      -0.971928       -26.4475
  45   2.0000      -0.965213       -26.2648
  46   2.0000      -0.961637       -26.1675
  47   2.0000      -0.953652       -25.9502
  48   2.0000      -0.943661       -25.6783
  49   2.0000      -0.940114       -25.5818
  50   2.0000      -0.935711       -25.4620
  51   2.0000      -0.934729       -25.4353
  52   2.0000      -0.934174       -25.4202
  53   2.0000      -0.932517       -25.3751
  54   2.0000      -0.932049       -25.3623
  55   2.0000      -0.927584       -25.2408
  56   2.0000      -0.924684       -25.1619
  57   2.0000      -0.898813       -24.4579
  58   2.0000      -0.898645       -24.4534
  59   2.0000      -0.895838       -24.3770
  60   2.0000      -0.599618       -16.3164
  61   2.0000      -0.598310       -16.2808
  62   2.0000      -0.596516       -16.2320
  63   2.0000      -0.582486       -15.8503
  64   2.0000      -0.546815       -14.8796
  65   2.0000      -0.542003       -14.7487
  66   2.0000      -0.528168       -14.3722
  67   2.0000      -0.527569       -14.3559
  68   2.0000      -0.524803       -14.2806
  69   2.0000      -0.522616       -14.2211
  70   2.0000      -0.520975       -14.1765
  71   2.0000      -0.520025       -14.1506
  72   2.0000      -0.517121       -14.0716
  73   2.0000      -0.515092       -14.0164
  74   2.0000      -0.505562       -13.7570
  75   2.0000      -0.503387       -13.6978
  76   2.0000      -0.492516       -13.4020
  77   2.0000      -0.487337       -13.2611
  78   2.0000      -0.480217       -13.0674
  79   2.0000      -0.476818       -12.9749
  80   2.0000      -0.451742       -12.2925
  81   2.0000      -0.446220       -12.1423
  82   2.0000      -0.442490       -12.0408
  83   2.0000      -0.441657       -12.0181
  84   2.0000      -0.440988       -11.9999
  85   2.0000      -0.436853       -11.8874
  86   2.0000      -0.433739       -11.8026
  87   2.0000      -0.427596       -11.6355
  88   2.0000      -0.407831       -11.0977
  89   2.0000      -0.398202       -10.8356
  90   2.0000      -0.390233       -10.6188
  91   2.0000      -0.377818       -10.2809
  92   2.0000      -0.342695        -9.3252
  93   2.0000      -0.340459        -9.2644
  94   2.0000      -0.333898        -9.0858
  95   2.0000      -0.331996        -9.0341
  96   2.0000      -0.330046        -8.9810
  97   2.0000      -0.327972        -8.9246
  98   2.0000      -0.324689        -8.8352
  99   2.0000      -0.320555        -8.7227
 100   2.0000      -0.318831        -8.6758
 101   2.0000      -0.317127        -8.6295
 102   2.0000      -0.315008        -8.5718
 103   2.0000      -0.314104        -8.5472
 104   2.0000      -0.312886        -8.5141
 105   2.0000      -0.310184        -8.4405
 106   2.0000      -0.309759        -8.4290
 107   2.0000      -0.305588        -8.3155
 108   2.0000      -0.283278        -7.7084
 109   2.0000      -0.278348        -7.5742
 110   2.0000      -0.274164        -7.4604
 111   2.0000      -0.267551        -7.2804
 112   2.0000      -0.265029        -7.2118
 113   2.0000      -0.263700        -7.1756
 114   2.0000      -0.255649        -6.9566
 115   2.0000      -0.251993        -6.8571
 116   2.0000      -0.247730        -6.7411
 117   2.0000      -0.241611        -6.5746
 118   2.0000      -0.239840        -6.5264
 119   2.0000      -0.236622        -6.4388
 120   0.0000      -0.024848        -0.6762
 121   0.0000      -0.001876        -0.0511
 122   0.0000      -0.000694        -0.0189
 123   0.0000       0.013397         0.3645
 124   0.0000       0.020754         0.5647

MULLIKEN ATOMIC CHARGES
-----------------------
   0 S :    1.168011
   1 O :   -0.539730
   2 O :   -0.559272
   3 O :   -0.627030
   4 O :   -0.672622
   5 H :    0.464051
   6 S :    1.050656
   7 O :   -0.625915
   8 O :   -0.643380
   9 O :   -0.471618
  10 O :   -0.655044
  11 H :    0.444640
  12 S :    1.152365
  13 O :   -0.558533
  14 O :   -0.571131
  15 O :   -0.643492
  16 O :   -0.622800
  17 H :    0.458890
  18 S :    1.142468
  19 O :   -0.656341
  20 O :   -0.649221
  21 O :   -0.520813
  22 O :   -0.611606
  23 H :    0.453119
  24 N :   -0.852889
  25 H :    0.435893
  26 H :    0.399703
  27 H :    0.432414
  28 H :    0.408987
  29 N :   -0.813738
  30 H :    0.403017
  31 H :    0.374619
  32 H :    0.413746
  33 H :    0.454750
  34 N :   -0.810454
  35 H :    0.410121
  36 H :    0.421686
  37 H :    0.382961
  38 H :    0.403649
  39 N :   -0.821704
  40 H :    0.394893
  41 H :    0.393055
  42 H :    0.414952
  43 H :    0.448687
Sum of atomic charges:    0.0000000

LOEWDIN ATOMIC CHARGES
----------------------
   0 S :    1.865012
   1 O :   -0.760789
   2 O :   -0.788654
   3 O :   -0.901658
   4 O :   -0.736831
   5 H :    0.369167
   6 S :    1.864141
   7 O :   -0.851117
   8 O :   -0.896018
   9 O :   -0.726198
  10 O :   -0.751943
  11 H :    0.380476
  12 S :    1.865925
  13 O :   -0.795365
  14 O :   -0.797941
  15 O :   -0.838930
  16 O :   -0.681573
  17 H :    0.369600
  18 S :    1.885811
  19 O :   -0.916538
  20 O :   -0.826827
  21 O :   -0.726726
  22 O :   -0.686020
  23 H :    0.375679
  24 N :   -0.394582
  25 H :    0.344438
  26 H :    0.307808
  27 H :    0.333174
  28 H :    0.335703
  29 N :   -0.376756
  30 H :    0.331818
  31 H :    0.312815
  32 H :    0.341654
  33 H :    0.338746
  34 N :   -0.399795
  35 H :    0.333738
  36 H :    0.339896
  37 H :    0.307303
  38 H :    0.336506
  39 N :   -0.402906
  40 H :    0.311451
  41 H :    0.321770
  42 H :    0.329545
  43 H :    0.354990

  Mayer bond orders larger than 0.100000
B(  0-S ,  1-O ) :   1.6595 B(  0-S ,  2-O ) :   1.5964 B(  0-S ,  3-O ) :   1.4470
B(  0-S ,  4-O ) :   0.9515 B(  1-O , 41-H ) :   0.1039 B(  2-O , 28-H ) :   0.1479
B(  4-O ,  5-H ) :   0.7276 B(  6-S ,  7-O ) :   1.5040 B(  6-S ,  8-O ) :   1.3526
B(  6-S ,  9-O ) :   1.8511 B(  6-S , 10-O ) :   1.0505 B(  7-O , 25-H ) :   0.1021
B(  8-O , 38-H ) :   0.1424 B( 10-O , 11-H ) :   0.6403 B( 11-H , 20-O ) :   0.1360
B( 12-S , 13-O ) :   1.5863 B( 12-S , 14-O ) :   1.5870 B( 12-S , 15-O ) :   1.4804
B( 12-S , 16-O ) :   1.0726 B( 13-O , 30-H ) :   0.1563 B( 14-O , 35-H ) :   0.1719
B( 16-O , 17-H ) :   0.7309 B( 18-S , 19-O ) :   1.3911 B( 18-S , 20-O ) :   1.4466
B( 18-S , 21-O ) :   1.7880 B( 18-S , 22-O ) :   1.0990 B( 19-O , 43-H ) :   0.1436
B( 22-O , 23-H ) :   0.6732 B( 24-N , 25-H ) :   0.7234 B( 24-N , 26-H ) :   0.8109
B( 24-N , 27-H ) :   0.7799 B( 24-N , 28-H ) :   0.6909 B( 29-N , 30-H ) :   0.6905
B( 29-N , 31-H ) :   0.7887 B( 29-N , 32-H ) :   0.7631 B( 29-N , 33-H ) :   0.7489
B( 34-N , 35-H ) :   0.6724 B( 34-N , 36-H ) :   0.7224 B( 34-N , 37-H ) :   0.8260
B( 34-N , 38-H ) :   0.7159 B( 39-N , 40-H ) :   0.8034 B( 39-N , 41-H ) :   0.7502
B( 39-N , 42-H ) :   0.7790 B( 39-N , 43-H ) :   0.6662

Dispersion correction           -0.128930179
FINAL SINGLE POINT ENERGY     -3026.625876476066
Dispersion correction            ... done

DIPOLE MOMENT
-------------
                                X             Y             Z
Electronic contribution:     -0.12710       4.67234       0.44597
Nuclear contribution   :     -0.93254      -6.26298      -0.62316
                        -----------------------------------------
Total Dipole Moment    :     -1.05965      -1.59064      -0.17718
                        -----------------------------------------
Magnitude (a.u.)       :      1.91948
Magnitude (Debye)      :      4.87892

Rotational constants in cm-1:     0.006667     0.004121     0.003808
Rotational constants in MHz :   199.876228   123.549338   114.155826

                             ****ORCA TERMINATED NORMALLY****
TOTAL RUN TIME: 0 days 0 hours 4 minutes 24 seconds 514 msec
