                         Program Version 5.0.3 -  RELEASE  -
|  1> ! B97-3c ENGRAD
|  2> %pal nprocs 1
|  3>     end
|  4> %Maxcore 3000.00
|  5> * xyzfile 0 1 4sa4am-44_10_163.xyz
|  6>
|  7>
|  8>                          ****END OF INPUT****

CARTESIAN COORDINATES (ANGSTROEM)
---------------------------------
  S      2.048392    1.936233   -0.741530
  O      2.247362    1.003667   -1.832587
  O      0.870538    2.779289   -0.948155
  O      2.072456    1.327287    0.572934
  O      3.321384    2.920523   -0.729710
  H      3.500218    3.223004   -1.627132
  S      1.301192   -0.626616    3.334033
  O      1.243190   -1.742873    2.359162
  O      0.204221    0.309590    3.051592
  O      1.414835   -1.041286    4.687416
  O      2.655009    0.165769    3.001877
  H      2.580303    0.653168    2.161498
  S     -0.843820   -2.240197   -2.207317
  O     -0.803582   -2.679001   -0.817685
  O     -2.065779   -1.525291   -2.539977
  O      0.358118   -1.540025   -2.619328
  O     -0.832544   -3.572251   -3.111224
  H     -1.666318   -4.040623   -2.993273
  S     -2.280494    0.633271   -0.019500
  O     -2.701880    1.496092   -1.101560
  O     -0.845814    0.310214   -0.114486
  O     -2.645447    1.071000    1.310092
  O     -3.056859   -0.762447   -0.193693
  H     -2.862339   -1.091870   -1.105582
  N     -1.377117   -1.706730    1.835438
  H     -1.627800   -0.729602    1.973656
  H     -1.498984   -1.935097    0.847551
  H     -0.368601   -1.809568    2.076723
  H     -1.949235   -2.302334    2.413929
  N     -0.539897    1.077002   -2.755349
  H     -0.117313    0.139814   -2.699171
  H     -0.025069    1.704246   -2.130664
  H     -0.517354    1.413928   -3.705001
  H     -1.500884    1.021528   -2.402757
  N     -0.291041    2.494613    1.615290
  H      0.063017    2.581081    0.658126
  H      0.129981    1.651374    2.046957
  H     -0.064893    3.309308    2.163635
  H     -1.295736    2.314149    1.587632
  N      1.573982   -1.247135   -0.261757
  H      2.261909   -0.743995   -0.814254
  H      1.367047   -2.148851   -0.673810
  H      1.853093   -1.353756    0.719400
  H      0.712552   -0.696602   -0.271436

 Total Charge           Charge          ....    0
 Multiplicity           Mult            ....    1
 Number of Electrons    NEL             ....  240
 Basis Dimension        Dim             ....  608

ORBITAL ENERGIES
----------------

  NO   OCC          E(Eh)            E(eV)
   0   2.0000     -88.287066     -2402.4132
   1   2.0000     -88.280378     -2402.2312
   2   2.0000     -88.270051     -2401.9502
   3   2.0000     -88.254058     -2401.5150
   4   2.0000     -18.804251      -511.6897
   5   2.0000     -18.799018      -511.5473
   6   2.0000     -18.776426      -510.9325
   7   2.0000     -18.766860      -510.6722
   8   2.0000     -18.759390      -510.4689
   9   2.0000     -18.757057      -510.4055
  10   2.0000     -18.751701      -510.2597
  11   2.0000     -18.750680      -510.2319
  12   2.0000     -18.749740      -510.2064
  13   2.0000     -18.745545      -510.0922
  14   2.0000     -18.745434      -510.0892
  15   2.0000     -18.738235      -509.8933
  16   2.0000     -18.737303      -509.8679
  17   2.0000     -18.733145      -509.7548
  18   2.0000     -18.724688      -509.5247
  19   2.0000     -18.714446      -509.2460
  20   2.0000     -14.075077      -383.0023
  21   2.0000     -14.074986      -382.9998
  22   2.0000     -14.073337      -382.9550
  23   2.0000     -14.072413      -382.9298
  24   2.0000      -7.948086      -216.2784
  25   2.0000      -7.941495      -216.0991
  26   2.0000      -7.931229      -215.8197
  27   2.0000      -7.914995      -215.3780
  28   2.0000      -5.978678      -162.6881
  29   2.0000      -5.975914      -162.6129
  30   2.0000      -5.975194      -162.5933
  31   2.0000      -5.972185      -162.5114
  32   2.0000      -5.968918      -162.4225
  33   2.0000      -5.968866      -162.4211
  34   2.0000      -5.961647      -162.2247
  35   2.0000      -5.959176      -162.1574
  36   2.0000      -5.958357      -162.1351
  37   2.0000      -5.945796      -161.7933
  38   2.0000      -5.942879      -161.7140
  39   2.0000      -5.941824      -161.6853
  40   2.0000      -1.109597       -30.1937
  41   2.0000      -1.103157       -30.0184
  42   2.0000      -1.092433       -29.7266
  43   2.0000      -1.074760       -29.2457
  44   2.0000      -0.980027       -26.6679
  45   2.0000      -0.974458       -26.5164
  46   2.0000      -0.958121       -26.0718
  47   2.0000      -0.954476       -25.9726
  48   2.0000      -0.949180       -25.8285
  49   2.0000      -0.944947       -25.7133
  50   2.0000      -0.942783       -25.6544
  51   2.0000      -0.941359       -25.6157
  52   2.0000      -0.940741       -25.5989
  53   2.0000      -0.929392       -25.2900
  54   2.0000      -0.923741       -25.1363
  55   2.0000      -0.917039       -24.9539
  56   2.0000      -0.904199       -24.6045
  57   2.0000      -0.903469       -24.5846
  58   2.0000      -0.900625       -24.5073
  59   2.0000      -0.899489       -24.4763
  60   2.0000      -0.613412       -16.6918
  61   2.0000      -0.608607       -16.5610
  62   2.0000      -0.585708       -15.9379
  63   2.0000      -0.581742       -15.8300
  64   2.0000      -0.532549       -14.4914
  65   2.0000      -0.530547       -14.4369
  66   2.0000      -0.527461       -14.3530
  67   2.0000      -0.525539       -14.3007
  68   2.0000      -0.522926       -14.2295
  69   2.0000      -0.521012       -14.1775
  70   2.0000      -0.517478       -14.0813
  71   2.0000      -0.516935       -14.0665
  72   2.0000      -0.515937       -14.0394
  73   2.0000      -0.513527       -13.9738
  74   2.0000      -0.510941       -13.9034
  75   2.0000      -0.508911       -13.8482
  76   2.0000      -0.500491       -13.6191
  77   2.0000      -0.495750       -13.4901
  78   2.0000      -0.481679       -13.1071
  79   2.0000      -0.476310       -12.9610
  80   2.0000      -0.455957       -12.4072
  81   2.0000      -0.454684       -12.3726
  82   2.0000      -0.453001       -12.3268
  83   2.0000      -0.449577       -12.2336
  84   2.0000      -0.442069       -12.0293
  85   2.0000      -0.435956       -11.8630
  86   2.0000      -0.424624       -11.5546
  87   2.0000      -0.417501       -11.3608
  88   2.0000      -0.408579       -11.1180
  89   2.0000      -0.404932       -11.0188
  90   2.0000      -0.392428       -10.6785
  91   2.0000      -0.369136       -10.0447
  92   2.0000      -0.349348        -9.5063
  93   2.0000      -0.343879        -9.3574
  94   2.0000      -0.339260        -9.2317
  95   2.0000      -0.338102        -9.2002
  96   2.0000      -0.335256        -9.1228
  97   2.0000      -0.334089        -9.0910
  98   2.0000      -0.329228        -8.9588
  99   2.0000      -0.326080        -8.8731
 100   2.0000      -0.324070        -8.8184
 101   2.0000      -0.320754        -8.7282
 102   2.0000      -0.318498        -8.6668
 103   2.0000      -0.313143        -8.5210
 104   2.0000      -0.310721        -8.4551
 105   2.0000      -0.305838        -8.3223
 106   2.0000      -0.297691        -8.1006
 107   2.0000      -0.295107        -8.0303
 108   2.0000      -0.290747        -7.9116
 109   2.0000      -0.284513        -7.7420
 110   2.0000      -0.278555        -7.5799
 111   2.0000      -0.271917        -7.3992
 112   2.0000      -0.264623        -7.2008
 113   2.0000      -0.262809        -7.1514
 114   2.0000      -0.255895        -6.9633
 115   2.0000      -0.254534        -6.9262
 116   2.0000      -0.252759        -6.8779
 117   2.0000      -0.247175        -6.7260
 118   2.0000      -0.244848        -6.6626
 119   2.0000      -0.224980        -6.1220
 120   0.0000      -0.020923        -0.5694
 121   0.0000      -0.005219        -0.1420
 122   0.0000       0.003578         0.0974
 123   0.0000       0.009612         0.2615
 124   0.0000       0.010733         0.2921

MULLIKEN ATOMIC CHARGES
-----------------------
   0 S :    1.238054
   1 O :   -0.606203
   2 O :   -0.667181
   3 O :   -0.611670
   4 O :   -0.610884
   5 H :    0.460947
   6 S :    1.150276
   7 O :   -0.717929
   8 O :   -0.650776
   9 O :   -0.436251
  10 O :   -0.631928
  11 H :    0.448000
  12 S :    1.255487
  13 O :   -0.614312
  14 O :   -0.628541
  15 O :   -0.651001
  16 O :   -0.610697
  17 H :    0.460683
  18 S :    0.963122
  19 O :   -0.544466
  20 O :   -0.589134
  21 O :   -0.571800
  22 O :   -0.612039
  23 H :    0.431055
  24 N :   -0.778622
  25 H :    0.400828
  26 H :    0.428526
  27 H :    0.397212
  28 H :    0.379741
  29 N :   -0.773170
  30 H :    0.389794
  31 H :    0.397341
  32 H :    0.378262
  33 H :    0.398055
  34 N :   -0.818654
  35 H :    0.392266
  36 H :    0.466031
  37 H :    0.380378
  38 H :    0.407892
  39 N :   -0.798897
  40 H :    0.403324
  41 H :    0.400882
  42 H :    0.419815
  43 H :    0.476183
Sum of atomic charges:   -0.0000000

LOEWDIN ATOMIC CHARGES
----------------------
   0 S :    1.877946
   1 O :   -0.798659
   2 O :   -0.848096
   3 O :   -0.824931
   4 O :   -0.673129
   5 H :    0.370533
   6 S :    1.865227
   7 O :   -0.905663
   8 O :   -0.873636
   9 O :   -0.666112
  10 O :   -0.713790
  11 H :    0.370673
  12 S :    1.878043
  13 O :   -0.829515
  14 O :   -0.781795
  15 O :   -0.830460
  16 O :   -0.672760
  17 H :    0.369811
  18 S :    1.869102
  19 O :   -0.769756
  20 O :   -0.921013
  21 O :   -0.791106
  22 O :   -0.768194
  23 H :    0.376910
  24 N :   -0.387887
  25 H :    0.328718
  26 H :    0.336479
  27 H :    0.342443
  28 H :    0.301451
  29 N :   -0.393097
  30 H :    0.336487
  31 H :    0.330942
  32 H :    0.297706
  33 H :    0.335433
  34 N :   -0.402306
  35 H :    0.332238
  36 H :    0.350243
  37 H :    0.298336
  38 H :    0.330237
  39 N :   -0.363096
  40 H :    0.324452
  41 H :    0.321688
  42 H :    0.333302
  43 H :    0.336601

  Mayer bond orders larger than 0.100000
B(  0-S ,  1-O ) :   1.6110 B(  0-S ,  2-O ) :   1.3628 B(  0-S ,  3-O ) :   1.5272
B(  0-S ,  4-O ) :   1.0893 B(  2-O , 31-H ) :   0.1407 B(  2-O , 35-H ) :   0.1486
B(  4-O ,  5-H ) :   0.7241 B(  6-S ,  7-O ) :   1.3203 B(  6-S ,  8-O ) :   1.4820
B(  6-S ,  9-O ) :   1.9203 B(  6-S , 10-O ) :   1.0320 B(  7-O , 27-H ) :   0.1981
B(  7-O , 42-H ) :   0.1152 B( 10-O , 11-H ) :   0.6759 B( 12-S , 13-O ) :   1.5256
B( 12-S , 14-O ) :   1.4878 B( 12-S , 15-O ) :   1.4923 B( 12-S , 16-O ) :   1.0786
B( 14-O , 23-H ) :   0.1582 B( 15-O , 30-H ) :   0.1310 B( 16-O , 17-H ) :   0.7266
B( 18-S , 19-O ) :   1.6414 B( 18-S , 20-O ) :   1.4202 B( 18-S , 21-O ) :   1.5748
B( 18-S , 22-O ) :   1.0392 B( 19-O , 33-H ) :   0.1152 B( 21-O , 38-H ) :   0.1009
B( 22-O , 23-H ) :   0.6358 B( 24-N , 25-H ) :   0.7664 B( 24-N , 26-H ) :   0.7423
B( 24-N , 27-H ) :   0.6654 B( 24-N , 28-H ) :   0.8332 B( 29-N , 30-H ) :   0.7223
B( 29-N , 31-H ) :   0.7296 B( 29-N , 32-H ) :   0.8383 B( 29-N , 33-H ) :   0.7275
B( 34-N , 35-H ) :   0.7152 B( 34-N , 36-H ) :   0.6993 B( 34-N , 37-H ) :   0.8356
B( 34-N , 38-H ) :   0.7393 B( 39-N , 40-H ) :   0.7660 B( 39-N , 41-H ) :   0.7918
B( 39-N , 42-H ) :   0.7083 B( 39-N , 43-H ) :   0.8223

Dispersion correction           -0.137415870
FINAL SINGLE POINT ENERGY     -3026.639979062700
Dispersion correction            ... done

DIPOLE MOMENT
-------------
                                X             Y             Z
Electronic contribution:      1.40739      -1.36088       0.80420
Nuclear contribution   :     -1.78402       2.03803      -2.95584
                        -----------------------------------------
Total Dipole Moment    :     -0.37663       0.67715      -2.15164
                        -----------------------------------------
Magnitude (a.u.)       :      2.28690
Magnitude (Debye)      :      5.81285

Rotational constants in cm-1:     0.006690     0.004972     0.004311
Rotational constants in MHz :   200.546716   149.048587   129.242664

                             ****ORCA TERMINATED NORMALLY****
TOTAL RUN TIME: 0 days 0 hours 4 minutes 27 seconds 756 msec
