 Gaussian 16, Revision B.01,
 Gaussian 16:  ES64L-G16RevB.01 20-Dec-2017

 -----------------
 # MP2 aug-cc-pVDZ
 -----------------

 -----------------------------------------------
 /home/kubeckaj/TUTORIAL/LECTURE_3/TASK_09/H.xyz
 -----------------------------------------------
 Symbolic Z-matrix:
 Charge =  0 Multiplicity = 2

                         Standard orientation:
 ---------------------------------------------------------------------
 Center     Atomic      Atomic             Coordinates (Angstroms)
 Number     Number       Type             X           Y           Z
 ---------------------------------------------------------------------
      1          1           0        0.000000    0.000000    0.000000
 ---------------------------------------------------------------------

 SCF Done:  E(UHF) = -0.499334315440     A.U. after    5 cycles
 E2 =     0.0000000000D+00 EUMP2 =    -0.49933431543959D+00

 The electronic state is 2-A1G.
 Alpha  occ. eigenvalues --   -0.49933
 Alpha virt. eigenvalues --    0.07295   0.28136   0.28136   0.28136   0.70627
 Alpha virt. eigenvalues --    1.74430   1.74430   1.74430
  Beta virt. eigenvalues --    0.01793   0.15436   0.32601   0.32601   0.32601

 Mulliken charges and spin densities:
               1          2
     1  H    0.000000   1.000000
 Sum of Mulliken charges =   0.00000   1.00000

 Dipole moment (field-independent basis, Debye):
    X=              0.0000    Y=              0.0000    Z=              0.0000  Tot=              0.0000
 Quadrupole moment (field-independent basis, Debye-Ang):
   XX=             -1.3558   YY=             -1.3558   ZZ=             -1.3558
   XY=              0.0000   XZ=              0.0000   YZ=              0.0000

 Normal termination of Gaussian 16 at Fri Apr 19 13:03:20 2024.
